LAMMPS data file. CGCMM style. atom_style full generated by VMD/TopoTools v1.7 on Sun Apr 05 12:16:54 IST 2020
 1000 atoms
 500 bonds
 0 angles
 0 dihedrals
 0 impropers
 2 atom types
 1 bond types
 0 angle types
 0 dihedral types
 0 improper types
-27 27 xlo xhi
-27 27 ylo yhi
-27 27 zlo zhi

# Pair Coeffs
#
# 1  1
# 2  2

# Bond Coeffs
#
# 1  

 Masses

 1 1.000000 # 1
 2 1.000000 # 2

 Atoms # full

1 1 1 0.000000 4.341000 -14.985000 4.314000 # 1 
2 1 2 0.000000 3.940000 -14.159000 4.708000 # 2 
3 2 1 0.000000 -4.789000 -17.188999 9.964000 # 1 
4 2 2 0.000000 -5.351000 -17.408001 10.761000 # 2 
5 3 1 0.000000 -7.485000 3.402000 0.687000 # 1 
6 3 2 0.000000 -6.792000 3.278000 -0.023000 # 2 
7 4 1 0.000000 -14.090000 17.059999 2.639000 # 1 
8 4 2 0.000000 -14.192000 16.510000 1.810000 # 2 
9 5 1 0.000000 4.797000 0.662000 -25.778999 # 1 
10 5 2 0.000000 5.760000 0.930000 -25.759001 # 2 
11 6 1 0.000000 8.884000 2.848000 -12.244000 # 1 
12 6 2 0.000000 9.310000 3.502000 -12.869000 # 2 
13 7 1 0.000000 3.620000 14.582000 18.361000 # 1 
14 7 2 0.000000 4.021000 15.447000 18.059000 # 2 
15 8 1 0.000000 1.974000 -12.124000 1.481000 # 1 
16 8 2 0.000000 1.009000 -12.384000 1.533000 # 2 
17 9 1 0.000000 18.669001 13.272000 1.545000 # 1 
18 9 2 0.000000 18.773001 13.573000 0.597000 # 2 
19 10 1 0.000000 -3.140000 -10.228000 17.452999 # 1 
20 10 2 0.000000 -3.591000 -11.120000 17.427999 # 2 
21 11 1 0.000000 24.628000 -8.874000 1.702000 # 1 
22 11 2 0.000000 24.400999 -7.940000 1.979000 # 2 
23 12 1 0.000000 2.932000 2.650000 -0.307000 # 1 
24 12 2 0.000000 3.882000 2.885000 -0.101000 # 2 
25 13 1 0.000000 -22.450001 10.727000 1.052000 # 1 
26 13 2 0.000000 -22.570999 9.958000 1.679000 # 2 
27 14 1 0.000000 -3.472000 10.639000 2.783000 # 1 
28 14 2 0.000000 -2.480000 10.746000 2.857000 # 2 
29 15 1 0.000000 15.261000 -7.252000 -3.181000 # 1 
30 15 2 0.000000 15.142000 -8.243000 -3.133000 # 2 
31 16 1 0.000000 -3.296000 19.865999 -17.740000 # 1 
32 16 2 0.000000 -2.501000 19.855000 -18.344999 # 2 
33 17 1 0.000000 -4.603000 15.745000 3.132000 # 1 
34 17 2 0.000000 -4.943000 15.400000 2.257000 # 2 
35 18 1 0.000000 -15.657000 -3.619000 -4.492000 # 1 
36 18 2 0.000000 -16.306000 -2.903000 -4.236000 # 2 
37 19 1 0.000000 20.603001 -8.388000 14.667000 # 1 
38 19 2 0.000000 20.652000 -7.410000 14.874000 # 2 
39 20 1 0.000000 -4.150000 14.910000 12.177000 # 1 
40 20 2 0.000000 -4.333000 14.074000 12.694000 # 2 
41 21 1 0.000000 22.091999 14.713000 -1.719000 # 1 
42 21 2 0.000000 21.684999 15.626000 -1.722000 # 2 
43 22 1 0.000000 1.767000 -26.142000 3.990000 # 1 
44 22 2 0.000000 1.268000 -26.591999 4.731000 # 2 
45 23 1 0.000000 1.050000 16.783001 18.309999 # 1 
46 23 2 0.000000 0.313000 16.676001 18.976999 # 2 
47 24 1 0.000000 9.267000 -6.469000 22.811001 # 1 
48 24 2 0.000000 8.784000 -6.742000 21.979000 # 2 
49 25 1 0.000000 -4.440000 23.160000 -5.945000 # 1 
50 25 2 0.000000 -5.373000 23.120001 -6.303000 # 2 
51 26 1 0.000000 -0.762000 -7.722000 11.673000 # 1 
52 26 2 0.000000 -0.693000 -8.195000 10.794000 # 2 
53 27 1 0.000000 -18.528999 0.392000 3.997000 # 1 
54 27 2 0.000000 -18.948000 -0.516000 3.987000 # 2 
55 28 1 0.000000 16.275000 -5.364000 -2.592000 # 1 
56 28 2 0.000000 16.554001 -4.591000 -3.161000 # 2 
57 29 1 0.000000 -2.912000 -10.176000 -1.874000 # 1 
58 29 2 0.000000 -3.638000 -10.249000 -1.191000 # 2 
59 30 1 0.000000 -0.853000 -14.660000 19.667000 # 1 
60 30 2 0.000000 -1.483000 -15.321000 19.259001 # 2 
61 31 1 0.000000 22.719000 11.768000 -2.964000 # 1 
62 31 2 0.000000 22.186001 12.395000 -3.532000 # 2 
63 32 1 0.000000 -7.330000 0.068000 -20.995001 # 1 
64 32 2 0.000000 -7.561000 0.668000 -20.229000 # 2 
65 33 1 0.000000 12.252000 -13.603000 9.043000 # 1 
66 33 2 0.000000 12.697000 -12.722000 8.884000 # 2 
67 34 1 0.000000 9.188000 -6.051000 0.811000 # 1 
68 34 2 0.000000 8.473000 -6.666000 0.478000 # 2 
69 35 1 0.000000 -12.572000 17.042000 -12.161000 # 1 
70 35 2 0.000000 -12.120000 16.233000 -11.783000 # 2 
71 36 1 0.000000 -3.724000 8.284000 2.050000 # 1 
72 36 2 0.000000 -4.722000 8.250000 1.992000 # 2 
73 37 1 0.000000 -9.682000 5.015000 15.095000 # 1 
74 37 2 0.000000 -9.744000 4.257000 15.744000 # 2 
75 38 1 0.000000 0.495000 6.656000 4.712000 # 1 
76 38 2 0.000000 0.241000 5.702000 4.871000 # 2 
77 39 1 0.000000 -18.747000 -5.857000 9.954000 # 1 
78 39 2 0.000000 -18.837999 -5.986000 10.941000 # 2 
79 40 1 0.000000 -11.960000 10.722000 -18.673000 # 1 
80 40 2 0.000000 -11.357000 10.785000 -17.879000 # 2 
81 41 1 0.000000 -0.549000 1.911000 -8.914000 # 1 
82 41 2 0.000000 -0.110000 2.808000 -8.962000 # 2 
83 42 1 0.000000 -0.926000 23.341000 -7.807000 # 1 
84 42 2 0.000000 -0.365000 24.090000 -8.159000 # 2 
85 43 1 0.000000 -8.335000 21.740999 5.311000 # 1 
86 43 2 0.000000 -8.375000 22.172001 4.409000 # 2 
87 44 1 0.000000 -2.797000 21.896000 14.766000 # 1 
88 44 2 0.000000 -2.402000 22.808001 14.651000 # 2 
89 45 1 0.000000 -9.127000 8.179000 -5.411000 # 1 
90 45 2 0.000000 -8.141000 8.122000 -5.572000 # 2 
91 46 1 0.000000 -1.072000 18.041000 16.565001 # 1 
92 46 2 0.000000 -0.735000 18.556999 15.777000 # 2 
93 47 1 0.000000 -15.309000 13.822000 -4.740000 # 1 
94 47 2 0.000000 -16.271999 13.703000 -4.982000 # 2 
95 48 1 0.000000 -22.545000 12.263000 0.089000 # 1 
96 48 2 0.000000 -22.962000 12.022000 -0.787000 # 2 
97 49 1 0.000000 -8.117000 -12.463000 21.183001 # 1 
98 49 2 0.000000 -8.529000 -11.553000 21.222000 # 2 
99 50 1 0.000000 6.689000 17.695000 15.599000 # 1 
100 50 2 0.000000 7.172000 16.875999 15.290000 # 2 
101 51 1 0.000000 -14.528000 0.318000 15.857000 # 1 
102 51 2 0.000000 -14.928000 0.744000 16.669001 # 2 
103 52 1 0.000000 18.389999 -11.135000 -8.692000 # 1 
104 52 2 0.000000 17.934999 -11.997000 -8.916000 # 2 
105 53 1 0.000000 3.895000 -18.763000 14.989000 # 1 
106 53 2 0.000000 3.913000 -18.958000 14.009000 # 2 
107 54 1 0.000000 9.577000 -1.751000 2.772000 # 1 
108 54 2 0.000000 9.721000 -0.957000 3.363000 # 2 
109 55 1 0.000000 -3.294000 -7.797000 0.022000 # 1 
110 55 2 0.000000 -2.670000 -8.015000 -0.729000 # 2 
111 56 1 0.000000 9.119000 -19.197001 -3.040000 # 1 
112 56 2 0.000000 8.928000 -20.011999 -3.587000 # 2 
113 57 1 0.000000 1.653000 17.148001 19.183001 # 1 
114 57 2 0.000000 2.537000 16.681000 19.212000 # 2 
115 58 1 0.000000 7.856000 3.254000 8.664000 # 1 
116 58 2 0.000000 7.535000 2.684000 9.420000 # 2 
117 59 1 0.000000 0.651000 -5.903000 -17.326000 # 1 
118 59 2 0.000000 0.698000 -6.878000 -17.541000 # 2 
119 60 1 0.000000 15.256000 -4.097000 -2.333000 # 1 
120 60 2 0.000000 15.605000 -3.577000 -3.113000 # 2 
121 61 1 0.000000 17.596001 -4.446000 1.468000 # 1 
122 61 2 0.000000 18.474001 -4.868000 1.244000 # 2 
123 62 1 0.000000 11.998000 -16.535000 13.133000 # 1 
124 62 2 0.000000 12.385000 -17.212999 13.759000 # 2 
125 63 1 0.000000 -7.454000 -21.889999 -11.898000 # 1 
126 63 2 0.000000 -6.815000 -22.658001 -11.837000 # 2 
127 64 1 0.000000 14.862000 -6.197000 1.820000 # 1 
128 64 2 0.000000 14.057000 -5.643000 2.035000 # 2 
129 65 1 0.000000 -13.729000 8.704000 -16.296000 # 1 
130 65 2 0.000000 -13.792000 8.541000 -15.311000 # 2 
131 66 1 0.000000 16.680000 -4.361000 5.673000 # 1 
132 66 2 0.000000 17.098000 -3.535000 5.296000 # 2 
133 67 1 0.000000 11.150000 -12.131000 5.719000 # 1 
134 67 2 0.000000 11.809000 -11.379000 5.761000 # 2 
135 68 1 0.000000 -19.952999 -14.222000 -9.111000 # 1 
136 68 2 0.000000 -20.763000 -14.264000 -9.697000 # 2 
137 69 1 0.000000 -11.736000 -14.697000 5.639000 # 1 
138 69 2 0.000000 -12.378000 -14.190000 6.215000 # 2 
139 70 1 0.000000 -12.982000 2.700000 0.305000 # 1 
140 70 2 0.000000 -12.537000 2.973000 -0.548000 # 2 
141 71 1 0.000000 -16.914000 1.243000 8.622000 # 1 
142 71 2 0.000000 -16.103001 1.048000 9.174000 # 2 
143 72 1 0.000000 2.517000 13.294000 -22.139000 # 1 
144 72 2 0.000000 2.014000 13.391000 -21.280001 # 2 
145 73 1 0.000000 9.996000 -11.224000 10.904000 # 1 
146 73 2 0.000000 10.861000 -11.498000 10.483000 # 2 
147 74 1 0.000000 0.588000 10.217000 2.679000 # 1 
148 74 2 0.000000 -0.346000 10.086000 2.345000 # 2 
149 75 1 0.000000 3.639000 -9.565000 5.683000 # 1 
150 75 2 0.000000 3.759000 -8.773000 5.085000 # 2 
151 76 1 0.000000 6.380000 -20.146000 1.733000 # 1 
152 76 2 0.000000 5.856000 -20.976999 1.925000 # 2 
153 77 1 0.000000 3.711000 -17.535999 13.928000 # 1 
154 77 2 0.000000 3.049000 -16.841999 14.210000 # 2 
155 78 1 0.000000 -17.778000 -13.796000 -2.329000 # 1 
156 78 2 0.000000 -18.774000 -13.765000 -2.418000 # 2 
157 79 1 0.000000 -7.810000 -9.971000 8.440000 # 1 
158 79 2 0.000000 -7.659000 -9.126000 7.926000 # 2 
159 80 1 0.000000 8.883000 23.761000 0.530000 # 1 
160 80 2 0.000000 8.115000 23.722000 1.168000 # 2 
161 81 1 0.000000 5.235000 0.594000 -12.667000 # 1 
162 81 2 0.000000 5.772000 -0.230000 -12.846000 # 2 
163 82 1 0.000000 20.216999 1.193000 2.261000 # 1 
164 82 2 0.000000 19.648001 1.994000 2.078000 # 2 
165 83 1 0.000000 -5.813000 20.934000 8.982000 # 1 
166 83 2 0.000000 -5.661000 20.341999 9.773000 # 2 
167 84 1 0.000000 -16.905001 -12.122000 5.905000 # 1 
168 84 2 0.000000 -16.353001 -12.768000 5.379000 # 2 
169 85 1 0.000000 -15.869000 -9.999000 17.763000 # 1 
170 85 2 0.000000 -16.153999 -9.704000 16.851000 # 2 
171 86 1 0.000000 -18.688999 -2.592000 11.821000 # 1 
172 86 2 0.000000 -18.339001 -2.279000 10.938000 # 2 
173 87 1 0.000000 13.556000 13.578000 6.936000 # 1 
174 87 2 0.000000 13.673000 13.947000 6.014000 # 2 
175 88 1 0.000000 11.850000 16.568001 2.284000 # 1 
176 88 2 0.000000 12.264000 15.720000 2.616000 # 2 
177 89 1 0.000000 7.297000 0.893000 -19.434000 # 1 
178 89 2 0.000000 6.602000 0.580000 -18.787001 # 2 
179 90 1 0.000000 21.289000 0.177000 11.659000 # 1 
180 90 2 0.000000 21.610001 1.113000 11.514000 # 2 
181 91 1 0.000000 0.017000 -5.770000 17.691999 # 1 
182 91 2 0.000000 -0.888000 -6.163000 17.856001 # 2 
183 92 1 0.000000 -6.120000 8.287000 -9.591000 # 1 
184 92 2 0.000000 -6.167000 8.114000 -10.575000 # 2 
185 93 1 0.000000 16.427000 8.770000 -12.149000 # 1 
186 93 2 0.000000 15.618000 8.915000 -11.580000 # 2 
187 94 1 0.000000 11.825000 -2.674000 23.205999 # 1 
188 94 2 0.000000 12.515000 -3.380000 23.048000 # 2 
189 95 1 0.000000 8.620000 17.159000 -7.598000 # 1 
190 95 2 0.000000 8.096000 17.997999 -7.450000 # 2 
191 96 1 0.000000 0.500000 -9.223000 -2.617000 # 1 
192 96 2 0.000000 1.061000 -8.409000 -2.466000 # 2 
193 97 1 0.000000 7.311000 4.007000 -9.402000 # 1 
194 97 2 0.000000 6.370000 4.319000 -9.273000 # 2 
195 98 1 0.000000 0.650000 -18.381001 9.328000 # 1 
196 98 2 0.000000 0.113000 -19.212000 9.470000 # 2 
197 99 1 0.000000 -16.509001 -0.153000 -14.648000 # 1 
198 99 2 0.000000 -17.377001 -0.112000 -15.143000 # 2 
199 100 1 0.000000 -16.815001 -16.514000 -0.024000 # 1 
200 100 2 0.000000 -16.860001 -15.545000 0.221000 # 2 
201 101 1 0.000000 2.516000 -22.065001 12.119000 # 1 
202 101 2 0.000000 3.017000 -21.641001 11.365000 # 2 
203 102 1 0.000000 2.856000 8.387000 -3.878000 # 1 
204 102 2 0.000000 2.357000 8.799000 -4.640000 # 2 
205 103 1 0.000000 4.766000 -5.778000 6.246000 # 1 
206 103 2 0.000000 5.689000 -5.851000 6.623000 # 2 
207 104 1 0.000000 -7.758000 6.620000 -5.072000 # 1 
208 104 2 0.000000 -6.993000 6.960000 -5.619000 # 2 
209 105 1 0.000000 -6.460000 -5.321000 -22.054001 # 1 
210 105 2 0.000000 -6.714000 -5.939000 -21.309999 # 2 
211 106 1 0.000000 -14.518000 -19.520000 -1.934000 # 1 
212 106 2 0.000000 -15.508000 -19.548000 -2.075000 # 2 
213 107 1 0.000000 -10.860000 20.459000 -8.881000 # 1 
214 107 2 0.000000 -9.950000 20.761000 -8.598000 # 2 
215 108 1 0.000000 -5.481000 -7.155000 11.261000 # 1 
216 108 2 0.000000 -5.422000 -6.324000 11.814000 # 2 
217 109 1 0.000000 -4.725000 -21.205999 13.388000 # 1 
218 109 2 0.000000 -4.797000 -20.822001 14.308000 # 2 
219 110 1 0.000000 6.496000 21.836000 6.989000 # 1 
220 110 2 0.000000 5.787000 22.228001 6.401000 # 2 
221 111 1 0.000000 10.760000 -21.231001 -12.133000 # 1 
222 111 2 0.000000 10.795000 -21.987000 -11.480000 # 2 
223 112 1 0.000000 -22.084999 1.196000 0.963000 # 1 
224 112 2 0.000000 -21.606001 0.326000 0.841000 # 2 
225 113 1 0.000000 10.546000 7.109000 10.349000 # 1 
226 113 2 0.000000 10.513000 7.089000 11.348000 # 2 
227 114 1 0.000000 19.033001 3.670000 6.735000 # 1 
228 114 2 0.000000 18.231001 3.665000 6.137000 # 2 
229 115 1 0.000000 -8.050000 -7.282000 -18.148001 # 1 
230 115 2 0.000000 -8.157000 -7.696000 -19.052000 # 2 
231 116 1 0.000000 -16.014999 10.080000 -3.459000 # 1 
232 116 2 0.000000 -15.228000 9.465000 -3.439000 # 2 
233 117 1 0.000000 5.975000 17.468000 10.896000 # 1 
234 117 2 0.000000 6.505000 18.298000 11.074000 # 2 
235 118 1 0.000000 -5.224000 -10.715000 22.099001 # 1 
236 118 2 0.000000 -5.957000 -11.167000 22.607000 # 2 
237 119 1 0.000000 12.459000 18.117001 3.000000 # 1 
238 119 2 0.000000 11.715000 17.992001 3.656000 # 2 
239 120 1 0.000000 10.497000 -7.950000 -16.509001 # 1 
240 120 2 0.000000 9.810000 -7.729000 -17.201000 # 2 
241 121 1 0.000000 -24.250999 -1.228000 -10.953000 # 1 
242 121 2 0.000000 -24.195000 -0.407000 -11.521000 # 2 
243 122 1 0.000000 -22.811001 8.472000 -3.435000 # 1 
244 122 2 0.000000 -22.645000 9.352000 -3.881000 # 2 
245 123 1 0.000000 0.530000 -3.404000 -4.181000 # 1 
246 123 2 0.000000 0.695000 -3.604000 -3.215000 # 2 
247 124 1 0.000000 7.365000 6.084000 -3.448000 # 1 
248 124 2 0.000000 7.160000 5.249000 -2.937000 # 2 
249 125 1 0.000000 7.083000 -21.999001 3.529000 # 1 
250 125 2 0.000000 6.259000 -22.563999 3.496000 # 2 
251 126 1 0.000000 -4.727000 11.298000 12.576000 # 1 
252 126 2 0.000000 -5.525000 11.901000 12.587000 # 2 
253 127 1 0.000000 18.218000 -12.755000 -0.379000 # 1 
254 127 2 0.000000 18.197001 -13.019000 0.585000 # 2 
255 128 1 0.000000 2.415000 15.638000 -13.881000 # 1 
256 128 2 0.000000 2.288000 15.926000 -14.830000 # 2 
257 129 1 0.000000 10.820000 3.948000 -5.102000 # 1 
258 129 2 0.000000 10.329000 4.466000 -5.803000 # 2 
259 130 1 0.000000 -1.927000 10.716000 -16.445999 # 1 
260 130 2 0.000000 -1.914000 9.722000 -16.554001 # 2 
261 131 1 0.000000 -23.509001 -0.274000 1.184000 # 1 
262 131 2 0.000000 -22.823000 -0.816000 0.698000 # 2 
263 132 1 0.000000 14.160000 -3.560000 -2.624000 # 1 
264 132 2 0.000000 13.823000 -2.763000 -3.126000 # 2 
265 133 1 0.000000 -8.754000 -16.908001 7.833000 # 1 
266 133 2 0.000000 -8.960000 -17.728001 7.298000 # 2 
267 134 1 0.000000 23.708000 -4.695000 5.759000 # 1 
268 134 2 0.000000 24.099001 -5.615000 5.716000 # 2 
269 135 1 0.000000 -0.654000 11.955000 7.958000 # 1 
270 135 2 0.000000 0.103000 11.305000 7.893000 # 2 
271 136 1 0.000000 -16.524000 -12.263000 8.966000 # 1 
272 136 2 0.000000 -15.870000 -12.976000 9.218000 # 2 
273 137 1 0.000000 1.094000 11.098000 -2.127000 # 1 
274 137 2 0.000000 0.452000 11.764000 -2.508000 # 2 
275 138 1 0.000000 7.109000 19.910000 8.506000 # 1 
276 138 2 0.000000 6.719000 19.037001 8.799000 # 2 
277 139 1 0.000000 -1.835000 -11.685000 1.415000 # 1 
278 139 2 0.000000 -1.810000 -10.949000 2.090000 # 2 
279 140 1 0.000000 12.172000 -10.947000 -18.188999 # 1 
280 140 2 0.000000 12.060000 -11.910000 -18.434999 # 2 
281 141 1 0.000000 12.728000 10.162000 13.010000 # 1 
282 141 2 0.000000 12.023000 10.864000 12.907000 # 2 
283 142 1 0.000000 13.160000 -5.345000 -4.745000 # 1 
284 142 2 0.000000 12.598000 -4.739000 -4.182000 # 2 
285 143 1 0.000000 -2.938000 2.668000 9.317000 # 1 
286 143 2 0.000000 -2.972000 3.613000 9.642000 # 2 
287 144 1 0.000000 20.809999 -9.238000 2.250000 # 1 
288 144 2 0.000000 20.929001 -8.257000 2.404000 # 2 
289 145 1 0.000000 -2.810000 -12.869000 21.170000 # 1 
290 145 2 0.000000 -2.929000 -13.386000 22.017000 # 2 
291 146 1 0.000000 -9.122000 17.400999 0.335000 # 1 
292 146 2 0.000000 -8.156000 17.240999 0.134000 # 2 
293 147 1 0.000000 10.493000 3.705000 6.218000 # 1 
294 147 2 0.000000 10.669000 3.741000 7.202000 # 2 
295 148 1 0.000000 21.021000 6.425000 10.422000 # 1 
296 148 2 0.000000 20.337999 6.976000 10.903000 # 2 
297 149 1 0.000000 -19.568001 -0.462000 -5.917000 # 1 
298 149 2 0.000000 -18.997000 -0.702000 -5.132000 # 2 
299 150 1 0.000000 -11.448000 -17.746000 -8.416000 # 1 
300 150 2 0.000000 -10.638000 -17.160999 -8.448000 # 2 
301 151 1 0.000000 -12.944000 -19.767000 0.270000 # 1 
302 151 2 0.000000 -13.378000 -19.267000 1.020000 # 2 
303 152 1 0.000000 7.894000 -0.535000 18.184000 # 1 
304 152 2 0.000000 8.439000 -0.919000 18.930000 # 2 
305 153 1 0.000000 -8.739000 7.354000 7.491000 # 1 
306 153 2 0.000000 -8.238000 6.875000 8.212000 # 2 
307 154 1 0.000000 -18.827000 14.792000 -3.624000 # 1 
308 154 2 0.000000 -18.839001 13.837000 -3.329000 # 2 
309 155 1 0.000000 7.772000 11.471000 21.450001 # 1 
310 155 2 0.000000 7.189000 10.852000 20.923000 # 2 
311 156 1 0.000000 0.820000 1.057000 17.642000 # 1 
312 156 2 0.000000 1.425000 1.282000 16.879000 # 2 
313 157 1 0.000000 -6.133000 3.558000 6.298000 # 1 
314 157 2 0.000000 -5.494000 3.952000 5.638000 # 2 
315 158 1 0.000000 15.053000 -1.029000 17.075001 # 1 
316 158 2 0.000000 14.907000 -1.819000 17.671000 # 2 
317 159 1 0.000000 -11.264000 -5.686000 15.303000 # 1 
318 159 2 0.000000 -11.727000 -5.094000 15.962000 # 2 
319 160 1 0.000000 1.380000 10.486000 15.052000 # 1 
320 160 2 0.000000 0.666000 9.793000 14.945000 # 2 
321 161 1 0.000000 -11.069000 6.355000 -11.369000 # 1 
322 161 2 0.000000 -11.933000 6.309000 -11.870000 # 2 
323 162 1 0.000000 14.087000 5.952000 -4.793000 # 1 
324 162 2 0.000000 14.165000 5.090000 -4.293000 # 2 
325 163 1 0.000000 18.620001 -0.765000 -2.783000 # 1 
326 163 2 0.000000 17.729000 -0.311000 -2.768000 # 2 
327 164 1 0.000000 0.818000 -6.426000 -14.277000 # 1 
328 164 2 0.000000 0.349000 -6.918000 -15.011000 # 2 
329 165 1 0.000000 -1.856000 13.110000 -14.433000 # 1 
330 165 2 0.000000 -1.983000 14.076000 -14.657000 # 2 
331 166 1 0.000000 1.508000 -23.113001 10.512000 # 1 
332 166 2 0.000000 1.356000 -22.283001 9.976000 # 2 
333 167 1 0.000000 11.089000 13.058000 20.503000 # 1 
334 167 2 0.000000 12.073000 12.941000 20.365999 # 2 
335 168 1 0.000000 9.976000 6.889000 -7.839000 # 1 
336 168 2 0.000000 10.690000 6.680000 -7.171000 # 2 
337 169 1 0.000000 1.126000 18.648001 -2.395000 # 1 
338 169 2 0.000000 0.454000 19.091000 -1.801000 # 2 
339 170 1 0.000000 -19.184999 14.996000 -10.348000 # 1 
340 170 2 0.000000 -19.893000 15.625000 -10.028000 # 2 
341 171 1 0.000000 -3.311000 -23.579000 -11.491000 # 1 
342 171 2 0.000000 -3.264000 -24.231001 -10.734000 # 2 
343 172 1 0.000000 -3.542000 5.774000 -4.205000 # 1 
344 172 2 0.000000 -4.210000 6.492000 -4.398000 # 2 
345 173 1 0.000000 13.769000 -19.808001 -6.148000 # 1 
346 173 2 0.000000 13.267000 -18.952000 -6.022000 # 2 
347 174 1 0.000000 9.426000 2.249000 -11.218000 # 1 
348 174 2 0.000000 9.159000 1.405000 -10.753000 # 2 
349 175 1 0.000000 -17.579000 3.881000 3.609000 # 1 
350 175 2 0.000000 -17.945999 4.804000 3.494000 # 2 
351 176 1 0.000000 -8.766000 17.635000 5.753000 # 1 
352 176 2 0.000000 -8.287000 18.285999 5.164000 # 2 
353 177 1 0.000000 -24.804001 4.472000 6.038000 # 1 
354 177 2 0.000000 -25.532000 4.222000 5.399000 # 2 
355 178 1 0.000000 12.397000 -4.176000 6.087000 # 1 
356 178 2 0.000000 12.052000 -4.303000 5.157000 # 2 
357 179 1 0.000000 -5.502000 6.188000 9.083000 # 1 
358 179 2 0.000000 -5.275000 5.252000 8.813000 # 2 
359 180 1 0.000000 -2.021000 1.625000 -3.156000 # 1 
360 180 2 0.000000 -1.089000 1.805000 -2.840000 # 2 
361 181 1 0.000000 12.192000 -12.600000 0.756000 # 1 
362 181 2 0.000000 11.720000 -13.462000 0.571000 # 2 
363 182 1 0.000000 4.534000 -7.492000 6.785000 # 1 
364 182 2 0.000000 4.899000 -8.157000 6.134000 # 2 
365 183 1 0.000000 1.072000 -15.879000 -14.731000 # 1 
366 183 2 0.000000 1.739000 -16.209999 -14.065000 # 2 
367 184 1 0.000000 1.815000 1.084000 1.129000 # 1 
368 184 2 0.000000 1.718000 0.741000 0.194000 # 2 
369 185 1 0.000000 -2.007000 -6.923000 -4.306000 # 1 
370 185 2 0.000000 -2.820000 -7.215000 -3.803000 # 2 
371 186 1 0.000000 10.654000 -9.047000 -4.193000 # 1 
372 186 2 0.000000 11.627000 -8.822000 -4.245000 # 2 
373 187 1 0.000000 -11.524000 -8.645000 -9.526000 # 1 
374 187 2 0.000000 -10.999000 -9.491000 -9.622000 # 2 
375 188 1 0.000000 0.897000 10.128000 -3.647000 # 1 
376 188 2 0.000000 0.120000 10.755000 -3.607000 # 2 
377 189 1 0.000000 -2.743000 -17.840000 16.482000 # 1 
378 189 2 0.000000 -2.344000 -17.104000 17.028000 # 2 
379 190 1 0.000000 10.012000 20.066999 3.534000 # 1 
380 190 2 0.000000 10.651000 20.761999 3.864000 # 2 
381 191 1 0.000000 -22.216999 2.084000 3.745000 # 1 
382 191 2 0.000000 -22.879000 2.824000 3.866000 # 2 
383 192 1 0.000000 15.998000 -20.544001 1.096000 # 1 
384 192 2 0.000000 15.684000 -19.652000 0.770000 # 2 
385 193 1 0.000000 -7.056000 10.877000 -1.972000 # 1 
386 193 2 0.000000 -6.974000 11.669000 -2.578000 # 2 
387 194 1 0.000000 -4.199000 -9.738000 -3.264000 # 1 
388 194 2 0.000000 -4.394000 -8.880000 -3.740000 # 2 
389 195 1 0.000000 15.313000 -12.704000 -10.839000 # 1 
390 195 2 0.000000 14.433000 -12.989000 -11.219000 # 2 
391 196 1 0.000000 -15.458000 5.080000 -18.847000 # 1 
392 196 2 0.000000 -14.925000 4.257000 -19.039000 # 2 
393 197 1 0.000000 4.074000 -10.197000 -18.593000 # 1 
394 197 2 0.000000 4.746000 -10.910000 -18.794001 # 2 
395 198 1 0.000000 20.754999 4.007000 6.131000 # 1 
396 198 2 0.000000 21.665001 4.298000 6.427000 # 2 
397 199 1 0.000000 -14.137000 12.588000 15.163000 # 1 
398 199 2 0.000000 -13.174000 12.328000 15.237000 # 2 
399 200 1 0.000000 -0.790000 -16.268999 -9.696000 # 1 
400 200 2 0.000000 -0.829000 -16.075001 -10.676000 # 2 
401 201 1 0.000000 13.932000 -19.534000 7.555000 # 1 
402 201 2 0.000000 14.520000 -19.110001 8.243000 # 2 
403 202 1 0.000000 9.442000 8.301000 22.024000 # 1 
404 202 2 0.000000 10.396000 8.392000 22.311001 # 2 
405 203 1 0.000000 9.429000 -10.054000 5.079000 # 1 
406 203 2 0.000000 8.829000 -10.607000 4.502000 # 2 
407 204 1 0.000000 5.692000 5.781000 2.523000 # 1 
408 204 2 0.000000 5.350000 5.834000 3.461000 # 2 
409 205 1 0.000000 -12.021000 4.818000 -6.814000 # 1 
410 205 2 0.000000 -11.132000 5.271000 -6.881000 # 2 
411 206 1 0.000000 16.344999 -5.887000 18.207001 # 1 
412 206 2 0.000000 17.091999 -5.856000 18.872000 # 2 
413 207 1 0.000000 8.922000 3.906000 14.639000 # 1 
414 207 2 0.000000 8.246000 3.490000 14.031000 # 2 
415 208 1 0.000000 15.348000 18.832001 -2.907000 # 1 
416 208 2 0.000000 15.217000 19.134001 -1.963000 # 2 
417 209 1 0.000000 8.831000 7.383000 -17.606001 # 1 
418 209 2 0.000000 8.317000 8.212000 -17.827000 # 2 
419 210 1 0.000000 -13.259000 10.116000 -16.221001 # 1 
420 210 2 0.000000 -13.793000 9.827000 -15.427000 # 2 
421 211 1 0.000000 2.718000 -17.382999 1.428000 # 1 
422 211 2 0.000000 2.172000 -16.546000 1.462000 # 2 
423 212 1 0.000000 -7.510000 -8.101000 -5.598000 # 1 
424 212 2 0.000000 -8.393000 -7.767000 -5.928000 # 2 
425 213 1 0.000000 -0.360000 9.659000 -0.493000 # 1 
426 213 2 0.000000 -0.660000 8.863000 0.033000 # 2 
427 214 1 0.000000 -9.761000 8.042000 -0.461000 # 1 
428 214 2 0.000000 -9.137000 8.368000 0.249000 # 2 
429 215 1 0.000000 -4.849000 3.308000 21.521999 # 1 
430 215 2 0.000000 -4.285000 2.604000 21.090000 # 2 
431 216 1 0.000000 -15.394000 -4.237000 -3.504000 # 1 
432 216 2 0.000000 -15.943000 -3.568000 -3.004000 # 2 
433 217 1 0.000000 -2.169000 0.828000 -4.592000 # 1 
434 217 2 0.000000 -1.892000 -0.062000 -4.229000 # 2 
435 218 1 0.000000 11.350000 7.430000 2.949000 # 1 
436 218 2 0.000000 10.767000 7.135000 3.706000 # 2 
437 219 1 0.000000 13.449000 3.832000 -6.994000 # 1 
438 219 2 0.000000 14.385000 4.013000 -6.692000 # 2 
439 220 1 0.000000 12.447000 16.620001 4.774000 # 1 
440 220 2 0.000000 11.473000 16.490000 4.959000 # 2 
441 221 1 0.000000 -8.085000 5.477000 19.681000 # 1 
442 221 2 0.000000 -8.116000 4.716000 20.329000 # 2 
443 222 1 0.000000 2.528000 21.721001 -6.796000 # 1 
444 222 2 0.000000 3.365000 22.128000 -6.429000 # 2 
445 223 1 0.000000 6.485000 12.939000 -3.847000 # 1 
446 223 2 0.000000 6.895000 13.360000 -4.656000 # 2 
447 224 1 0.000000 -5.823000 0.554000 -11.195000 # 1 
448 224 2 0.000000 -5.320000 -0.309000 -11.153000 # 2 
449 225 1 0.000000 3.162000 -22.448999 0.058000 # 1 
450 225 2 0.000000 3.097000 -23.377001 -0.309000 # 2 
451 226 1 0.000000 -13.668000 9.304000 11.687000 # 1 
452 226 2 0.000000 -14.060000 9.757000 10.886000 # 2 
453 227 1 0.000000 -16.597000 15.969000 12.419000 # 1 
454 227 2 0.000000 -15.721000 15.735000 11.998000 # 2 
455 228 1 0.000000 24.076000 -8.361000 0.620000 # 1 
456 228 2 0.000000 24.382999 -7.459000 0.921000 # 2 
457 229 1 0.000000 11.229000 12.503000 -1.235000 # 1 
458 229 2 0.000000 10.559000 13.233000 -1.097000 # 2 
459 230 1 0.000000 -17.972000 -5.439000 -0.176000 # 1 
460 230 2 0.000000 -18.306000 -4.730000 -0.796000 # 2 
461 231 1 0.000000 20.833000 -5.934000 5.148000 # 1 
462 231 2 0.000000 20.818001 -5.522000 4.237000 # 2 
463 232 1 0.000000 -4.503000 17.056999 -17.889999 # 1 
464 232 2 0.000000 -4.108000 16.194000 -18.204000 # 2 
465 233 1 0.000000 11.847000 7.704000 -13.998000 # 1 
466 233 2 0.000000 11.814000 6.759000 -13.672000 # 2 
467 234 1 0.000000 14.339000 9.630000 -4.891000 # 1 
468 234 2 0.000000 13.775000 10.097000 -5.572000 # 2 
469 235 1 0.000000 3.539000 -1.010000 13.817000 # 1 
470 235 2 0.000000 2.983000 -1.635000 14.365000 # 2 
471 236 1 0.000000 5.321000 14.421000 17.679001 # 1 
472 236 2 0.000000 5.563000 14.804000 16.788000 # 2 
473 237 1 0.000000 8.134000 1.654000 12.275000 # 1 
474 237 2 0.000000 8.014000 2.330000 11.549000 # 2 
475 238 1 0.000000 9.316000 20.393000 -1.829000 # 1 
476 238 2 0.000000 9.361000 21.360001 -2.081000 # 2 
477 239 1 0.000000 -20.351999 -2.462000 8.958000 # 1 
478 239 2 0.000000 -20.920000 -2.506000 8.136000 # 2 
479 240 1 0.000000 -9.823000 -6.219000 -7.915000 # 1 
480 240 2 0.000000 -10.103000 -6.068000 -6.967000 # 2 
481 241 1 0.000000 13.133000 13.682000 -11.108000 # 1 
482 241 2 0.000000 13.594000 12.913000 -11.550000 # 2 
483 242 1 0.000000 8.611000 18.787001 1.689000 # 1 
484 242 2 0.000000 8.064000 19.372000 1.090000 # 2 
485 243 1 0.000000 -24.792000 -9.086000 -4.560000 # 1 
486 243 2 0.000000 -24.285999 -9.916000 -4.793000 # 2 
487 244 1 0.000000 -8.249000 -24.780001 2.338000 # 1 
488 244 2 0.000000 -7.792000 -23.896999 2.230000 # 2 
489 245 1 0.000000 8.564000 6.910000 -7.029000 # 1 
490 245 2 0.000000 8.072000 6.157000 -7.467000 # 2 
491 246 1 0.000000 -15.813000 -19.785000 -4.963000 # 1 
492 246 2 0.000000 -16.023001 -20.698999 -5.311000 # 2 
493 247 1 0.000000 -12.639000 4.610000 6.838000 # 1 
494 247 2 0.000000 -12.018000 5.052000 6.190000 # 2 
495 248 1 0.000000 11.279000 13.904000 13.512000 # 1 
496 248 2 0.000000 11.742000 14.088000 12.645000 # 2 
497 249 1 0.000000 -6.868000 -7.719000 -12.443000 # 1 
498 249 2 0.000000 -6.627000 -8.458000 -13.072000 # 2 
499 250 1 0.000000 -1.240000 23.006001 2.778000 # 1 
500 250 2 0.000000 -1.192000 22.562000 3.673000 # 2 
501 251 1 0.000000 -11.198000 -13.285000 -8.428000 # 1 
502 251 2 0.000000 -11.088000 -12.886000 -7.517000 # 2 
503 252 1 0.000000 1.209000 -2.227000 -22.160000 # 1 
504 252 2 0.000000 0.232000 -2.038000 -22.065001 # 2 
505 253 1 0.000000 10.515000 3.149000 -18.750000 # 1 
506 253 2 0.000000 11.085000 3.938000 -18.521999 # 2 
507 254 1 0.000000 -0.336000 4.846000 -7.561000 # 1 
508 254 2 0.000000 -0.181000 4.849000 -8.549000 # 2 
509 255 1 0.000000 13.243000 16.815001 -2.694000 # 1 
510 255 2 0.000000 12.331000 16.813999 -2.284000 # 2 
511 256 1 0.000000 -0.105000 22.389999 9.789000 # 1 
512 256 2 0.000000 -0.593000 21.589001 9.444000 # 2 
513 257 1 0.000000 -9.792000 -8.337000 -21.591000 # 1 
514 257 2 0.000000 -9.334000 -9.213000 -21.441000 # 2 
515 258 1 0.000000 16.097000 -16.040001 12.999000 # 1 
516 258 2 0.000000 15.195000 -15.624000 12.881000 # 2 
517 259 1 0.000000 6.222000 -18.500999 5.417000 # 1 
518 259 2 0.000000 6.396000 -19.368999 4.952000 # 2 
519 260 1 0.000000 -10.154000 -4.469000 4.904000 # 1 
520 260 2 0.000000 -10.916000 -3.944000 5.284000 # 2 
521 261 1 0.000000 3.898000 20.681000 5.931000 # 1 
522 261 2 0.000000 3.124000 20.605000 5.303000 # 2 
523 262 1 0.000000 8.847000 12.240000 -20.818001 # 1 
524 262 2 0.000000 9.028000 11.282000 -21.042000 # 2 
525 263 1 0.000000 11.473000 18.999001 7.221000 # 1 
526 263 2 0.000000 11.835000 18.815001 6.307000 # 2 
527 264 1 0.000000 1.769000 4.055000 0.087000 # 1 
528 264 2 0.000000 2.621000 4.571000 0.000000 # 2 
529 265 1 0.000000 9.374000 -18.518000 -0.590000 # 1 
530 265 2 0.000000 8.452000 -18.724001 -0.261000 # 2 
531 266 1 0.000000 2.429000 -22.802000 11.135000 # 1 
532 266 2 0.000000 2.439000 -22.490999 10.185000 # 2 
533 267 1 0.000000 -5.714000 -18.351999 5.233000 # 1 
534 267 2 0.000000 -5.801000 -17.489000 4.736000 # 2 
535 268 1 0.000000 -1.023000 -10.566000 20.384001 # 1 
536 268 2 0.000000 -0.091000 -10.893000 20.228001 # 2 
537 269 1 0.000000 -21.025999 14.658000 3.969000 # 1 
538 269 2 0.000000 -21.959000 14.303000 4.030000 # 2 
539 270 1 0.000000 -3.189000 17.403000 -3.444000 # 1 
540 270 2 0.000000 -3.012000 18.386000 -3.477000 # 2 
541 271 1 0.000000 0.432000 7.703000 24.964001 # 1 
542 271 2 0.000000 -0.166000 8.276000 25.525000 # 2 
543 272 1 0.000000 -8.246000 13.493000 -20.639999 # 1 
544 272 2 0.000000 -8.556000 14.178000 -19.980000 # 2 
545 273 1 0.000000 10.553000 1.505000 22.500000 # 1 
546 273 2 0.000000 11.329000 1.589000 21.874001 # 2 
547 274 1 0.000000 13.642000 -2.830000 20.034000 # 1 
548 274 2 0.000000 13.121000 -2.472000 20.809000 # 2 
549 275 1 0.000000 -5.987000 -6.385000 -17.639000 # 1 
550 275 2 0.000000 -5.546000 -6.998000 -18.292999 # 2 
551 276 1 0.000000 3.853000 -13.714000 1.207000 # 1 
552 276 2 0.000000 4.231000 -14.124000 0.377000 # 2 
553 277 1 0.000000 -3.356000 -11.532000 -10.881000 # 1 
554 277 2 0.000000 -2.732000 -10.833000 -11.232000 # 2 
555 278 1 0.000000 -1.191000 21.485001 1.808000 # 1 
556 278 2 0.000000 -1.739000 21.552999 2.642000 # 2 
557 279 1 0.000000 7.796000 16.794001 4.850000 # 1 