LAMMPS (7 Aug 2019)
Reading data file ...
  orthogonal box = (0 -5 0) to (350 5 20)
  1 by 1 by 1 MPI processor grid
  reading atoms ...
  1920 atoms
  scanning bonds ...
  1 = max bonds/atom
  scanning angles ...
  1 = max angles/atom
  reading bonds ...
  1280 bonds
  reading angles ...
  640 angles
Finding 1-2 1-3 1-4 neighbors ...
  special bond factors lj:   0          0          0         
  special bond factors coul: 0          0          0         
  2 = max # of 1-2 neighbors
  1 = max # of 1-3 neighbors
  1 = max # of 1-4 neighbors
  2 = max # of special neighbors
  special bonds CPU = 0.00040102 secs
  read_data CPU = 0.0038588 secs
WARNING: 5 of 251 force values in table are inconsistent with -dE/dr.
  Should only be flagged at inflection points (../pair_table.cpp:483)
WARNING: 2 of 251 force values in table are inconsistent with -dE/dr.
  Should only be flagged at inflection points (../pair_table.cpp:483)
WARNING: 2 of 251 force values in table are inconsistent with -dE/dr.
  Should only be flagged at inflection points (../pair_table.cpp:483)
WARNING: 2 of 251 force values in table are inconsistent with -dE/dr.
  Should only be flagged at inflection points (../pair_table.cpp:483)
WARNING: 5 of 251 force values in table are inconsistent with -dE/dr.
  Should only be flagged at inflection points (../pair_table.cpp:483)
WARNING: 1 of 251 force values in table are inconsistent with -dE/dr.
  Should only be flagged at inflection points (../pair_table.cpp:483)
1920 atoms in group LIPID
Neighbor list info ...
  update every 1 steps, delay 0 steps, check yes
  max neighbors/atom: 2000, page size: 100000
  master list distance cutoff = 2.8
  ghost atom cutoff = 2.8
  binsize = 1.4, bins = 251 8 15
  1 neighbor lists, perpetual/occasional/extra = 1 0 0
  (1) pair table, perpetual
      attributes: half, newton on
      pair build: half/bin/newton
      stencil: half/bin/2d/newton
      bin: standard
Setting up cg style minimization ...
  Unit style    : lj
  Current step  : 0
Per MPI rank memory allocation (min/avg/max) = 8.716 | 8.716 | 8.716 Mbytes
Step PotEng TotEng Volume E_pair E_bond E_angle 
       0    218.06667    218.06667         3500    218.06667 4.9303807e-29            0 
      20    100.48437    100.48437         3500    100.26633   0.17078138   0.04726192 
      40    95.384128    95.384128         3500    94.803222   0.43431283   0.14659331 
      60    89.717095    89.717095         3500    87.851699    1.6848574   0.18053877 
      80    79.505664    79.505664         3500    76.618929    2.7398217   0.14691336 
     100    65.353549    65.353549         3500    59.506155    5.5767469    0.2706477 
     120   -1.9952392   -1.9952392         3500   -5.8371388    3.7204031   0.12149652 
     140   -13.462038   -13.462038         3500   -14.559261    1.0854266  0.011796864 
     160   -14.384198   -14.384198         3500   -15.238212   0.84456842  0.009446277 
     180   -15.167542   -15.167542         3500   -15.849509   0.66780742  0.014159685 
     200    -16.43512    -16.43512         3500   -16.907267   0.45953535  0.012612011 
     220   -17.660629   -17.660629         3500   -18.025754   0.34910911   0.01601618 
     240   -18.536698   -18.536698         3500   -18.804636   0.25742836  0.010509711 
     260   -19.149375   -19.149375         3500   -19.378635   0.21884833  0.010411458 
     280    -19.53266    -19.53266         3500   -19.721333   0.17848683  0.010185997 
     300   -19.807695   -19.807695         3500   -19.983461   0.16716234  0.008603826 
     320   -20.010151   -20.010151         3500   -20.178015   0.15910891 0.0087549998 
     340   -20.182763   -20.182763         3500    -20.35175   0.15977766 0.0092089675 
     360   -20.373924   -20.373924         3500   -20.541951   0.15880466 0.0092221166 
     380   -20.513258   -20.513258         3500   -20.678126   0.15504241 0.0098252352 
     400   -20.617523   -20.617523         3500   -20.784084   0.15730351 0.0092572413 
     420   -20.707637   -20.707637         3500   -20.874451   0.15738991 0.0094239414 
     440   -20.774548   -20.774548         3500   -20.942514   0.15911706  0.008848891 
     460   -20.829157   -20.829157         3500   -20.997366   0.15925565 0.0089534556 
     480   -20.949621   -20.949621         3500   -21.119405   0.16070317 0.0090810206 
     500   -21.011454   -21.011454         3500   -21.180978    0.1610459 0.0084775533 
     520   -21.059463   -21.059463         3500   -21.228704   0.16041919 0.0088222475 
     540   -21.092798   -21.092798         3500   -21.262494   0.16095983 0.0087360021 
     560   -21.169932   -21.169932         3500    -21.34354   0.16464818 0.0089591321 
     580   -21.245337   -21.245337         3500   -21.419597    0.1653774 0.0088825874 
     600    -21.26766    -21.26766         3500   -21.440737    0.1644971 0.0085798564 
     620   -21.276574   -21.276574         3500   -21.448507   0.16348188 0.0084507014 
     640   -21.283987   -21.283987         3500   -21.455531    0.1629795 0.0085645755 
     660    -21.29632    -21.29632         3500   -21.468077   0.16314147 0.0086148285 
     680   -21.312909   -21.312909         3500   -21.484666   0.16310968 0.0086466645 
     700   -21.324739   -21.324739         3500    -21.49622   0.16295038 0.0085306738 
     720   -21.332326   -21.332326         3500   -21.503496   0.16269438 0.0084754691 
     740   -21.339702   -21.339702         3500    -21.51087    0.1626053 0.0085633906 
     760   -21.353435   -21.353435         3500   -21.523587   0.16149026 0.0086619893 
     780   -21.380178   -21.380178         3500   -21.550786   0.16119697 0.0094105687 
     800   -21.402382   -21.402382         3500   -21.572269    0.1613137 0.0085729639 
     820   -21.422765   -21.422765         3500   -21.592679   0.16149854 0.0084147665 
     840   -21.438244   -21.438244         3500   -21.606194   0.15946227 0.0084880457 
     860   -21.449775   -21.449775         3500   -21.617117   0.15896403 0.0083781714 
     880   -21.460485   -21.460485         3500   -21.628745   0.15996958 0.0082902521 
     900   -21.481563   -21.481563         3500   -21.647485   0.15758625 0.0083358248 
     920   -21.510168   -21.510168         3500   -21.676134   0.15765771 0.0083085126 
     940   -21.538558   -21.538558         3500   -21.707766   0.16087032 0.0083376287 
     960   -21.563595   -21.563595         3500   -21.733035   0.16118545 0.0082550045 
     980   -21.587623   -21.587623         3500   -21.758162   0.16228632 0.0082527197 
    1000   -21.598746   -21.598746         3500   -21.767348   0.16056966 0.0080320749 
    1020   -21.603413   -21.603413         3500   -21.772573    0.1610563 0.0081033939 
    1040   -21.607746   -21.607746         3500   -21.777031   0.16103953 0.0082455481 
    1060   -21.614919   -21.614919         3500    -21.78512    0.1620322 0.0081691607 
    1080   -21.617402   -21.617402         3500   -21.787597   0.16203793 0.0081574024 
    1100   -21.619675   -21.619675         3500   -21.789993   0.16220988 0.0081076295 
    1120   -21.622332   -21.622332         3500   -21.792613    0.1621424 0.0081385292 
    1140   -21.625317   -21.625317         3500   -21.795232   0.16177149 0.0081432946 
    1160   -21.629578   -21.629578         3500   -21.799456   0.16169181 0.0081865388 
    1180   -21.638115   -21.638115         3500   -21.808058   0.16170097  0.008241703 
    1200   -21.651783   -21.651783         3500   -21.822029   0.16202995 0.0082167788 
    1220   -21.670274   -21.670274         3500   -21.841898   0.16368569 0.0079384883 
    1240   -21.681317   -21.681317         3500   -21.850958   0.16175257 0.0078881385 
    1260   -21.691923   -21.691923         3500   -21.862075   0.16237463 0.0077775311 
    1280   -21.698953   -21.698953         3500   -21.868358   0.16158241  0.007822783 
    1300   -21.705839   -21.705839         3500   -21.875946   0.16244987 0.0076567313 
    1320   -21.711262   -21.711262         3500   -21.880911   0.16203166 0.0076171058 
    1340   -21.718014   -21.718014         3500    -21.88793   0.16226838 0.0076469782 
    1360   -21.723507   -21.723507         3500   -21.893516   0.16227027 0.0077386382 
    1380   -21.732744   -21.732744         3500   -21.903783   0.16340347 0.0076355441 
    1400   -21.739581   -21.739581         3500   -21.909935   0.16261504 0.0077382049 
    1420   -21.742919   -21.742919         3500   -21.913036   0.16252921  0.007588626 
    1440   -21.744548   -21.744548         3500    -21.91463   0.16251143 0.0075707487 
    1460   -21.745915   -21.745915         3500   -21.916175   0.16267623 0.0075831623 
    1480   -21.747077   -21.747077         3500   -21.917336   0.16268999 0.0075690402 
    1500   -21.748252   -21.748252         3500   -21.918342   0.16250792 0.0075825496 
    1520   -21.749197   -21.749197         3500   -21.919228   0.16247816 0.0075522006 
    1540   -21.750276   -21.750276         3500   -21.920173    0.1623647  0.007532425 
    1560   -21.751199   -21.751199         3500    -21.92102   0.16229325 0.0075272482 
    1580    -21.75218    -21.75218         3500   -21.921952   0.16224084 0.0075317302 
    1600   -21.753458   -21.753458         3500   -21.923136   0.16214435 0.0075334841 
    1620   -21.754978   -21.754978         3500   -21.924699   0.16223188  0.007489449 
    1640   -21.756497   -21.756497         3500   -21.926174   0.16220174  0.007475693 
    1660   -21.757863   -21.757863         3500   -21.927435   0.16206608 0.0075066391 
    1680   -21.760061   -21.760061         3500   -21.929546   0.16195967 0.0075248479 
    1700   -21.761953   -21.761953         3500   -21.931235   0.16185106 0.0074312933 
    1720   -21.766158   -21.766158         3500    -21.93545   0.16179573 0.0074969557 
    1740   -21.770347   -21.770347         3500   -21.939843   0.16210657 0.0073891065 
    1760   -21.772194   -21.772194         3500   -21.941513   0.16197046 0.0073481263 
    1780   -21.773693   -21.773693         3500   -21.942784   0.16167882  0.007411858 
    1800   -21.778631   -21.778631         3500   -21.947852   0.16177835  0.007442533 
    1820   -21.780087   -21.780087         3500   -21.949122    0.1616532 0.0073812964 
    1840   -21.780524   -21.780524         3500   -21.949602    0.1617302 0.0073479253 
    1860   -21.780929   -21.780929         3500   -21.950151   0.16186749 0.0073544213 
    1880   -21.781264   -21.781264         3500   -21.950468   0.16184577 0.0073580752 
    1900   -21.781901   -21.781901         3500    -21.95101   0.16178061 0.0073280361 
    1920   -21.783373   -21.783373         3500   -21.952407   0.16165306  0.007380625 
    1940   -21.791175   -21.791175         3500   -21.960301   0.16126693 0.0078590131 
    1960   -21.795801   -21.795801         3500   -21.964293   0.16113685 0.0073554201 
    1980    -21.79721    -21.79721         3500   -21.965719   0.16119417 0.0073149523 
    2000    -21.79801    -21.79801         3500   -21.966506   0.16122724 0.0072682144 
    2020   -21.798376   -21.798376         3500   -21.966948   0.16128232 0.0072898368 
    2040   -21.798738   -21.798738         3500   -21.967285   0.16126071 0.0072867888 
    2060   -21.799245   -21.799245         3500   -21.967809   0.16130365 0.0072605956 
    2080   -21.799602   -21.799602         3500   -21.968151   0.16125891 0.0072898997 
    2100   -21.800216   -21.800216         3500   -21.968652   0.16114977 0.0072858734 
    2120   -21.801827   -21.801827         3500   -21.970266   0.16115337 0.0072857258 
    2140   -21.805598   -21.805598         3500   -21.974172   0.16116999 0.0074035835 
    2160   -21.810542   -21.810542         3500   -21.978881     0.161071 0.0072674745 
    2180   -21.812965   -21.812965         3500   -21.981188   0.16103789 0.0071847217 
    2200   -21.814779   -21.814779         3500   -21.982931   0.16095905  0.007192662 
    2220   -21.815915   -21.815915         3500   -21.984175   0.16104411 0.0072158052 
    2240   -21.816466   -21.816466         3500   -21.984595   0.16093017 0.0071989064 
    2260   -21.817001   -21.817001         3500   -21.985107   0.16089894 0.0072074549 
    2280   -21.817544   -21.817544         3500   -21.985644   0.16091747 0.0071832551 
    2300   -21.818284   -21.818284         3500   -21.986328   0.16085001  0.007193767 
    2320   -21.818868   -21.818868         3500   -21.986827   0.16080109 0.0071580185 
    2340   -21.819744   -21.819744         3500   -21.987715   0.16079527 0.0071761218 
    2360   -21.822415   -21.822415         3500   -21.990204   0.16056045 0.0072289041 
    2380   -21.834034   -21.834034         3500   -22.001458   0.16021527 0.0072092715 
    2400   -21.854254   -21.854254         3500   -22.021665   0.16009168 0.0073194876 
    2420    -21.85947    -21.85947         3500   -22.026557   0.15998951 0.0070976403 
    2440   -21.860962   -21.860962         3500   -22.028206    0.1601375 0.0071066337 
    2460   -21.862742   -21.862742         3500   -22.029913   0.16006217 0.0071082823 
    2480   -21.865069   -21.865069         3500   -22.032198    0.1600478 0.0070814718 
    2500   -21.868602   -21.868602         3500   -22.035389   0.15947599 0.0073116586 
    2520   -21.874195   -21.874195         3500   -22.041621   0.16025716 0.0071686221 
    2540   -21.878345   -21.878345         3500   -22.045224   0.15971387 0.0071650058 
    2560   -21.887166   -21.887166         3500   -22.055022   0.16065358 0.0072023372 
    2580   -21.892019   -21.892019         3500   -22.059762   0.16060605 0.0071373537 
    2600   -21.894306   -21.894306         3500   -22.061867   0.16044534 0.0071157294 
    2620   -21.895781   -21.895781         3500   -22.063305   0.16040709 0.0071164012 
    2640   -21.896423   -21.896423         3500   -22.063779   0.16026519 0.0070909642 
    2660   -21.897369   -21.897369         3500   -22.064815   0.16034028 0.0071052584 
    2680   -21.898391   -21.898391         3500   -22.065953   0.16041938 0.0071421782 
    2700    -21.89931    -21.89931         3500   -22.066767   0.16030333 0.0071536551 
    2720   -21.900196   -21.900196         3500   -22.067633   0.16031337 0.0071240862 
    2740   -21.901336   -21.901336         3500      -22.069   0.16051603 0.0071469967 
    2760   -21.905276   -21.905276         3500   -22.072395   0.15989814 0.0072202302 
    2780   -21.908781   -21.908781         3500   -22.075969   0.15999343 0.0071950526 
    2800   -21.910712   -21.910712         3500   -22.077771   0.15982821 0.0072311422 
    2820    -21.91468    -21.91468         3500   -22.081129   0.15910925 0.0073391655 
    2840   -21.922627   -21.922627         3500   -22.088803   0.15864019 0.0075349961 
    2860    -21.92944    -21.92944         3500    -22.09594   0.15907839 0.0074216161 
    2880   -21.932726   -21.932726         3500   -22.098901   0.15888478 0.0072903596 
    2900    -21.93401    -21.93401         3500   -22.100272   0.15900138 0.0072604597 
    2920   -21.935088   -21.935088         3500   -22.101615   0.15927631 0.0072510331 
    2940   -21.936511   -21.936511         3500   -22.102837   0.15906648 0.0072589702 
    2960   -21.941111   -21.941111         3500   -22.107388   0.15843595 0.0078405912 
    2980   -21.952868   -21.952868         3500   -22.119552   0.15933734 0.0073465357 
    3000   -21.962586   -21.962586         3500   -22.130036   0.16000137 0.0074480702 
    3020   -21.968318   -21.968318         3500   -22.135547   0.15981258 0.0074161088 
    3040   -21.970385   -21.970385         3500   -22.137588   0.15977837 0.0074247454 
    3060    -21.97299    -21.97299         3500   -22.140414   0.15993032 0.0074930654 
    3080   -21.976637   -21.976637         3500   -22.144617   0.16052318 0.0074567205 
    3100   -21.978379   -21.978379         3500   -22.146088   0.16027208 0.0074368953 
    3120   -21.979116   -21.979116         3500   -22.147007   0.16049076 0.0074001822 
    3140   -21.979661   -21.979661         3500   -22.147505   0.16042072 0.0074227392 
    3160   -21.980475   -21.980475         3500   -22.148067    0.1602078  0.007384198 
    3180   -21.981158   -21.981158         3500   -22.148875   0.16031187 0.0074050692 
    3200   -21.981846   -21.981846         3500   -22.149484   0.16022329 0.0074143031 
    3220   -21.982472   -21.982472         3500   -22.150046   0.16021978 0.0073539577 
    3240   -21.983118   -21.983118         3500   -22.150685   0.16014509 0.0074217942 
    3260   -21.984067   -21.984067         3500   -22.151695   0.16020068 0.0074273203 
    3280   -21.985383   -21.985383         3500   -22.152855   0.16013478 0.0073370746 
    3300   -21.986787   -21.986787         3500   -22.154262   0.16011254 0.0073624865 
    3320   -21.987518   -21.987518         3500   -22.154953   0.16008418 0.0073506252 
    3340   -21.988106   -21.988106         3500   -22.155561   0.16012019 0.0073352515 
    3360   -21.988602   -21.988602         3500   -22.156041   0.16009273 0.0073456821 
    3380   -21.989066   -21.989066         3500   -22.156433   0.16004425 0.0073226803 
    3400   -21.989512   -21.989512         3500   -22.156926   0.16007136 0.0073422422 
    3420   -21.989917   -21.989917         3500   -22.157287   0.16005022 0.0073199473 
    3440   -21.990445   -21.990445         3500   -22.157807   0.16003935 0.0073235054 
    3460   -21.990817   -21.990817         3500   -22.158159   0.16001625 0.0073258616 
    3480   -21.991125   -21.991125         3500   -22.158442   0.16000439 0.0073121263 
    3500   -21.991428   -21.991428         3500   -22.158736   0.16000528 0.0073021588 
    3520    -21.99269    -21.99269         3500   -22.160003   0.15995131 0.0073612622 
    3540    -21.99471    -21.99471         3500    -22.16182   0.15982536 0.0072847343 
    3560   -21.995273   -21.995273         3500   -22.162347   0.15980509 0.0072689315 
    3580   -21.995752   -21.995752         3500   -22.162801   0.15975649  0.007292404 
    3600   -21.996054   -21.996054         3500   -22.163056   0.15974583  0.007255535 
    3620   -21.996332   -21.996332         3500   -22.163336   0.15972918  0.007274799 
    3640   -21.996809   -21.996809         3500   -22.163761   0.15970093 0.0072508327 
    3660   -21.997773   -21.997773         3500   -22.164675   0.15962063 0.0072820213 
    3680   -21.998717   -21.998717         3500   -22.165525   0.15958771 0.0072204539 
    3700   -21.999333   -21.999333         3500   -22.166141   0.15955144   0.00725646 
    3720   -21.999852   -21.999852         3500   -22.166577   0.15951625 0.0072089691 
    3740    -22.00031    -22.00031         3500   -22.167005    0.1594732 0.0072218605 
    3757   -22.000485   -22.000485         3500   -22.167162   0.15946094 0.0072163676 
Loop time of 3.85025 on 1 procs for 3757 steps with 1920 atoms

99.9% CPU use with 1 MPI tasks x no OpenMP threads

Minimization stats:
  Stopping criterion = energy tolerance
  Energy initial, next-to-last, final = 
         218.066673953     -22.0004830311     -22.0004845956
  Force two-norm initial, final = 302836 30.2696
  Force max component initial, final = 11956.9 7.02358
  Final line search alpha, max atom move = 0.017125 0.120279
  Iterations, force evaluations = 3757 7490

MPI task timing breakdown:
Section |  min time  |  avg time  |  max time  |%varavg| %total
---------------------------------------------------------------
Pair    | 2.6012     | 2.6012     | 2.6012     |   0.0 | 67.56
Bond    | 0.67401    | 0.67401    | 0.67401    |   0.0 | 17.51
Neigh   | 0.14596    | 0.14596    | 0.14596    |   0.0 |  3.79
Comm    | 0.044436   | 0.044436   | 0.044436   |   0.0 |  1.15
Output  | 0.024698   | 0.024698   | 0.024698   |   0.0 |  0.64
Modify  | 0.065835   | 0.065835   | 0.065835   |   0.0 |  1.71
Other   |            | 0.2941     |            |       |  7.64

Nlocal:    1920 ave 1920 max 1920 min
Histogram: 1 0 0 0 0 0 0 0 0 0
Nghost:    804 ave 804 max 804 min
Histogram: 1 0 0 0 0 0 0 0 0 0
Neighs:    12518 ave 12518 max 12518 min
Histogram: 1 0 0 0 0 0 0 0 0 0

Total # of neighbors = 12518
Ave neighs/atom = 6.51979
Ave special neighs/atom = 2
Neighbor list builds = 253
Dangerous builds = 0
System init for write_data ...
Total wall time: 0:00:03
