LAMMPS data file via write_data, version 7 Aug 2019, timestep = 3757

1920 atoms
3 atom types
1280 bonds
2 bond types
640 angles
1 angle types

0.0000000000000000e+00 3.5000000000000000e+02 xlo xhi
-5.0000000000000000e+00 5.0000000000000000e+00 ylo yhi
0.0000000000000000e+00 2.0000000000000000e+01 zlo zhi

Masses

1 1
2 1
3 1

Bond Coeffs # harmonic

1 3000 1
2 3000 1

Angle Coeffs # harmonic

1 3000 180

Atoms # full

118 40 1 0.0000000000000000e+00 1.7578937865185569e+01 -3.7600535785178510e+00 1.0000000000000000e+01 0 0 0
190 64 1 0.0000000000000000e+00 3.0981919344392171e+01 -3.8134817213424275e+00 1.0000000000000000e+01 0 0 0
274 92 1 0.0000000000000000e+00 4.6653619304225359e+01 -3.8073068372404681e+00 1.0000000000000000e+01 0 0 0
334 112 1 0.0000000000000000e+00 5.4539348195299922e+01 -4.4351231794485244e+00 1.0000000000000000e+01 0 0 0
341 114 2 0.0000000000000000e+00 5.5692532037412917e+01 -4.9366295549796000e+00 1.0000000000000000e+01 0 0 0
335 112 2 0.0000000000000000e+00 5.5332851386981190e+01 -3.8232213470194325e+00 1.0000000000000000e+01 0 0 0
342 114 3 0.0000000000000000e+00 5.6552526038548528e+01 -4.4429585481793037e+00 1.0000000000000000e+01 0 0 0
347 116 2 0.0000000000000000e+00 5.7830810856947906e+01 -4.3208346957047379e+00 1.0000000000000000e+01 0 0 0
352 118 1 0.0000000000000000e+00 5.9087545640335641e+01 -4.3247691790400253e+00 1.0000000000000000e+01 0 0 0
358 120 1 0.0000000000000000e+00 6.0274312127255108e+01 -4.3211052381343666e+00 1.0000000000000000e+01 0 0 0
364 122 1 0.0000000000000000e+00 6.1383122436403298e+01 -4.3210896679446567e+00 1.0000000000000000e+01 0 0 0
370 124 1 0.0000000000000000e+00 6.2417993859630805e+01 -4.2866933912710081e+00 1.0000000000000000e+01 0 0 0
376 126 1 0.0000000000000000e+00 6.3433242179839866e+01 -4.1848182843599178e+00 1.0000000000000000e+01 0 0 0
382 128 1 0.0000000000000000e+00 6.4465284228087981e+01 -4.0400896583550132e+00 1.0000000000000000e+01 0 0 0
388 130 1 0.0000000000000000e+00 6.5552269425776643e+01 -3.8893191757052725e+00 1.0000000000000000e+01 0 0 0
394 132 1 0.0000000000000000e+00 6.6715910075904787e+01 -3.7402944872205603e+00 1.0000000000000000e+01 0 0 0
406 136 1 0.0000000000000000e+00 7.1115646412850907e+01 -3.7289168800158969e+00 1.0000000000000000e+01 0 0 0
415 139 1 0.0000000000000000e+00 7.1384749871586251e+01 -4.9217570795230401e+00 1.0000000000000000e+01 0 1 0
457 153 1 0.0000000000000000e+00 7.7998544746529291e+01 -4.6994077861934116e+00 1.0000000000000000e+01 0 1 0
502 168 1 0.0000000000000000e+00 8.5422187758892363e+01 -4.0276657795543054e+00 1.0000000000000000e+01 0 0 0
508 170 1 0.0000000000000000e+00 8.6451595674745150e+01 -3.7678377173443240e+00 1.0000000000000000e+01 0 0 0
526 176 1 0.0000000000000000e+00 8.9507100625365155e+01 -4.0233968684220800e+00 1.0000000000000000e+01 0 0 0
533 178 2 0.0000000000000000e+00 9.1702577250620607e+01 -3.8318805188082448e+00 1.0000000000000000e+01 0 0 0
532 178 1 0.0000000000000000e+00 9.2293104789041678e+01 -4.6420359716706843e+00 1.0000000000000000e+01 0 0 0
538 180 1 0.0000000000000000e+00 9.3332173502896737e+01 -4.3813821452441619e+00 1.0000000000000000e+01 0 0 0
544 182 1 0.0000000000000000e+00 9.4430635758006744e+01 -4.2369403256941256e+00 1.0000000000000000e+01 0 0 0
550 184 1 0.0000000000000000e+00 9.5488295853985392e+01 -4.1416129809176701e+00 1.0000000000000000e+01 0 0 0
556 186 1 0.0000000000000000e+00 9.6552363464165367e+01 -4.1464684815629527e+00 1.0000000000000000e+01 0 0 0
667 223 1 0.0000000000000000e+00 1.1621791465615465e+02 -4.4199322046873437e+00 1.0000000000000000e+01 0 1 0
700 234 1 0.0000000000000000e+00 1.2151151062634609e+02 -3.7147625244360283e+00 1.0000000000000000e+01 0 0 0
706 236 1 0.0000000000000000e+00 1.2279706580778887e+02 -4.2508416315325004e+00 1.0000000000000000e+01 0 0 0
742 248 1 0.0000000000000000e+00 1.2813565770844687e+02 -4.3092256812355529e+00 1.0000000000000000e+01 0 0 0
790 264 1 0.0000000000000000e+00 1.3623343401904310e+02 -4.8926503945610698e+00 1.0000000000000000e+01 0 0 0
797 266 2 0.0000000000000000e+00 1.3740151234188821e+02 4.7956664615787323e+00 1.0000000000000000e+01 0 -1 0
798 266 3 0.0000000000000000e+00 1.3811676586315164e+02 -4.5183625689535409e+00 1.0000000000000000e+01 0 0 0
802 268 1 0.0000000000000000e+00 1.3981890632914266e+02 4.8328243776273636e+00 1.0000000000000000e+01 0 -1 0
803 268 2 0.0000000000000000e+00 1.3932082896631954e+02 -4.2888812528616027e+00 1.0000000000000000e+01 0 0 0
808 270 1 0.0000000000000000e+00 1.4078810993974787e+02 4.9669049975553774e+00 1.0000000000000000e+01 0 -1 0
809 270 2 0.0000000000000000e+00 1.4044344895253317e+02 -4.0937173682497221e+00 1.0000000000000000e+01 0 0 0
814 272 1 0.0000000000000000e+00 1.4174173058688976e+02 -4.8798364606069295e+00 1.0000000000000000e+01 0 0 0
820 274 1 0.0000000000000000e+00 1.4268018423805927e+02 -4.6378160981951932e+00 1.0000000000000000e+01 0 0 0
826 276 1 0.0000000000000000e+00 1.4363762746787214e+02 -4.3769491562816052e+00 1.0000000000000000e+01 0 0 0
832 278 1 0.0000000000000000e+00 1.4448228397773090e+02 -4.8888534892933810e+00 1.0000000000000000e+01 0 0 0
839 280 2 0.0000000000000000e+00 1.4568101788625387e+02 -4.6729226446738261e+00 1.0000000000000000e+01 0 0 0
833 278 2 0.0000000000000000e+00 1.4479079819433630e+02 -3.9337472704763732e+00 1.0000000000000000e+01 0 0 0
846 282 3 0.0000000000000000e+00 1.4692245472220452e+02 -4.7993767356168044e+00 1.0000000000000000e+01 0 0 0
840 280 3 0.0000000000000000e+00 1.4611326767604530e+02 -3.7778483687102424e+00 1.0000000000000000e+01 0 0 0
851 284 2 0.0000000000000000e+00 1.4814481613627501e+02 -4.2464475101763020e+00 1.0000000000000000e+01 0 0 0
852 284 3 0.0000000000000000e+00 1.4739682035351868e+02 -3.5991146173371096e+00 1.0000000000000000e+01 0 0 0
856 286 1 0.0000000000000000e+00 1.4933559895400202e+02 -3.9568957069446511e+00 1.0000000000000000e+01 0 0 0
901 301 1 0.0000000000000000e+00 1.5678190613376137e+02 -3.9186834821336762e+00 1.0000000000000000e+01 0 1 0
904 302 1 0.0000000000000000e+00 1.5861299813283696e+02 -3.2249941570517868e+00 1.0000000000000000e+01 0 0 0
931 311 1 0.0000000000000000e+00 1.6227913056338414e+02 -4.3733028162383070e+00 1.0000000000000000e+01 0 1 0
991 331 1 0.0000000000000000e+00 1.7419684555255188e+02 -4.7327508439332266e+00 1.0000000000000000e+01 0 1 0
1084 362 1 0.0000000000000000e+00 1.8776645673850146e+02 -4.1613243695911777e+00 1.0000000000000000e+01 0 0 0
1090 364 1 0.0000000000000000e+00 1.8988096265648591e+02 -4.2016713636534142e+00 1.0000000000000000e+01 0 0 0
1096 366 1 0.0000000000000000e+00 1.9094464118077417e+02 -4.0198913499420348e+00 1.0000000000000000e+01 0 0 0
1108 370 1 0.0000000000000000e+00 1.9272045326869863e+02 -4.5695127812963854e+00 1.0000000000000000e+01 0 0 0
1102 368 1 0.0000000000000000e+00 1.9201558484674374e+02 -3.9001974140862723e+00 1.0000000000000000e+01 0 0 0
1115 372 2 0.0000000000000000e+00 1.9392497649778170e+02 -4.7018372993387265e+00 1.0000000000000000e+01 0 0 0
1116 372 3 0.0000000000000000e+00 1.9449319616176371e+02 -3.8899971726415576e+00 1.0000000000000000e+01 0 0 0
1120 374 1 0.0000000000000000e+00 1.9597763728204814e+02 -4.9588120268397926e+00 1.0000000000000000e+01 0 0 0
1121 374 2 0.0000000000000000e+00 1.9571079757629084e+02 -3.9853451996434797e+00 1.0000000000000000e+01 0 0 0
1126 376 1 0.0000000000000000e+00 1.9683479392609809e+02 -4.5048090082076095e+00 1.0000000000000000e+01 0 0 0
1132 378 1 0.0000000000000000e+00 1.9784144635541614e+02 -4.9072480603029751e+00 1.0000000000000000e+01 0 0 0
1133 378 2 0.0000000000000000e+00 1.9785655280383401e+02 -3.9039612444042704e+00 1.0000000000000000e+01 0 0 0
1145 382 2 0.0000000000000000e+00 1.9998860713184052e+02 -4.9068280575340824e+00 1.0000000000000000e+01 0 0 0
1139 380 2 0.0000000000000000e+00 1.9894015940844483e+02 -4.3520216656049735e+00 1.0000000000000000e+01 0 0 0
1146 382 3 0.0000000000000000e+00 2.0020435254646691e+02 -3.9423679189932597e+00 1.0000000000000000e+01 0 0 0
1150 384 1 0.0000000000000000e+00 2.0160744475022679e+02 4.7919345660202026e+00 1.0000000000000000e+01 0 -1 0
1151 384 2 0.0000000000000000e+00 2.0143539267189843e+02 -4.2182245222185548e+00 1.0000000000000000e+01 0 0 0
1156 386 1 0.0000000000000000e+00 2.0256536018484366e+02 -4.6759388614199509e+00 1.0000000000000000e+01 0 0 0
1168 390 1 0.0000000000000000e+00 2.0440980348244173e+02 -4.6164412750931572e+00 1.0000000000000000e+01 0 0 0
1162 388 1 0.0000000000000000e+00 2.0354118145571394e+02 -4.1967410975375197e+00 1.0000000000000000e+01 0 0 0
1175 392 2 0.0000000000000000e+00 2.0559585885260211e+02 -4.3775930392402600e+00 1.0000000000000000e+01 0 0 0
1180 394 1 0.0000000000000000e+00 2.0760057370268115e+02 -3.9475705154099723e+00 1.0000000000000000e+01 0 0 0
1264 422 1 0.0000000000000000e+00 2.2016794557772602e+02 -3.6146726317650217e+00 1.0000000000000000e+01 0 0 0
1255 419 1 0.0000000000000000e+00 2.1990667274500956e+02 -4.9500119701843515e+00 1.0000000000000000e+01 0 1 0
1261 421 1 0.0000000000000000e+00 2.2315374524324454e+02 -4.4866807653750671e+00 1.0000000000000000e+01 0 1 0
1324 442 1 0.0000000000000000e+00 2.3076945955936148e+02 -4.3453700077922734e+00 1.0000000000000000e+01 0 0 0
1325 442 2 0.0000000000000000e+00 2.3146904245679627e+02 -3.6305905507778196e+00 1.0000000000000000e+01 0 0 0
1330 444 1 0.0000000000000000e+00 2.3382825253790719e+02 -3.6500660900929169e+00 1.0000000000000000e+01 0 0 0
1348 450 1 0.0000000000000000e+00 2.3660128650038584e+02 -3.4644160547212501e+00 1.0000000000000000e+01 0 0 0
1354 452 1 0.0000000000000000e+00 2.3767758139675163e+02 -3.8657076197168552e+00 1.0000000000000000e+01 0 0 0
1414 472 1 0.0000000000000000e+00 2.4626137799465081e+02 -3.7038586799834836e+00 1.0000000000000000e+01 0 0 0
1422 474 3 0.0000000000000000e+00 2.4809305922780129e+02 -3.8981654936401049e+00 1.0000000000000000e+01 0 0 0
1421 474 2 0.0000000000000000e+00 2.4883153197348383e+02 -4.5608954966804731e+00 1.0000000000000000e+01 0 0 0
1426 476 1 0.0000000000000000e+00 2.5039370941704951e+02 -4.6502037992763041e+00 1.0000000000000000e+01 0 0 0
1427 476 2 0.0000000000000000e+00 2.4975172149129975e+02 -3.8824148446310236e+00 1.0000000000000000e+01 0 0 0
1432 478 1 0.0000000000000000e+00 2.5098372115058086e+02 -3.7846295827704104e+00 1.0000000000000000e+01 0 0 0
1486 496 1 0.0000000000000000e+00 2.5925591870542377e+02 -4.4963850790937663e+00 1.0000000000000000e+01 0 0 0
1487 496 2 0.0000000000000000e+00 2.5985078410173179e+02 -3.6922595599934742e+00 1.0000000000000000e+01 0 0 0
1543 515 1 0.0000000000000000e+00 2.7246156128582373e+02 -4.5795990646493454e+00 1.0000000000000000e+01 0 1 0
1594 532 1 0.0000000000000000e+00 2.7879692752918669e+02 -3.8029733995113766e+00 1.0000000000000000e+01 0 0 0
1648 550 1 0.0000000000000000e+00 2.8851415742608253e+02 -4.2555467116645582e+00 1.0000000000000000e+01 0 0 0
1649 550 2 0.0000000000000000e+00 2.8917808566437202e+02 -3.5074389419966967e+00 1.0000000000000000e+01 0 0 0
1726 576 1 0.0000000000000000e+00 3.0362142719543237e+02 -3.6666439360227181e+00 1.0000000000000000e+01 0 0 0
1732 578 1 0.0000000000000000e+00 3.0410580136001334e+02 -4.5841310240824011e+00 1.0000000000000000e+01 0 0 0
1733 578 2 0.0000000000000000e+00 3.0484064506642147e+02 -3.9061249817636647e+00 1.0000000000000000e+01 0 0 0
1804 602 1 0.0000000000000000e+00 3.1769388779793468e+02 -4.2393692716135769e+00 1.0000000000000000e+01 0 0 0
34 12 1 0.0000000000000000e+00 1.5090570413731536e-01 -2.8871996209533091e+00 1.0000000000000000e+01 0 0 0
40 14 1 0.0000000000000000e+00 1.3727622306662852e+00 -2.7453244797089238e+00 1.0000000000000000e+01 0 0 0
46 16 1 0.0000000000000000e+00 2.5962642661916520e+00 -2.6311311343738657e+00 1.0000000000000000e+01 0 0 0
52 18 1 0.0000000000000000e+00 3.8051215840443620e+00 -2.5469234680746111e+00 1.0000000000000000e+01 0 0 0
58 20 1 0.0000000000000000e+00 4.9790394770697217e+00 -2.5001118200059098e+00 1.0000000000000000e+01 0 0 0
64 22 1 0.0000000000000000e+00 6.1089887089800623e+00 -2.4990660317415796e+00 1.0000000000000000e+01 0 0 0
70 24 1 0.0000000000000000e+00 7.1829985231684335e+00 -2.5298854803498019e+00 1.0000000000000000e+01 0 0 0
76 26 1 0.0000000000000000e+00 8.2145059839799952e+00 -2.5459504953865126e+00 1.0000000000000000e+01 0 0 0
82 28 1 0.0000000000000000e+00 9.2387547009254405e+00 -2.5072707955099038e+00 1.0000000000000000e+01 0 0 0
88 30 1 0.0000000000000000e+00 1.0291568546952394e+01 -2.4246754338114465e+00 1.0000000000000000e+01 0 0 0
94 32 1 0.0000000000000000e+00 1.1415477266767795e+01 -2.3360063297373914e+00 1.0000000000000000e+01 0 0 0
100 34 1 0.0000000000000000e+00 1.2608774617846207e+01 -2.2503692534287936e+00 1.0000000000000000e+01 0 0 0
106 36 1 0.0000000000000000e+00 1.3743270102364066e+01 -2.2014632341712197e+00 1.0000000000000000e+01 0 0 0
112 38 1 0.0000000000000000e+00 1.4442599983042260e+01 -2.8845027843746536e+00 1.0000000000000000e+01 0 0 0
113 38 2 0.0000000000000000e+00 1.4998669189504856e+01 -2.0429629812168244e+00 1.0000000000000000e+01 0 0 0
120 40 3 0.0000000000000000e+00 1.6192386718874783e+01 -2.3337308320853878e+00 1.0000000000000000e+01 0 0 0
119 40 2 0.0000000000000000e+00 1.6882509251837011e+01 -3.0431610652335741e+00 1.0000000000000000e+01 0 0 0
125 42 2 0.0000000000000000e+00 1.7455246821656385e+01 -2.0215730430912342e+00 1.0000000000000000e+01 0 0 0
124 42 1 0.0000000000000000e+00 1.8060198217909182e+01 -2.8247074754573638e+00 1.0000000000000000e+01 0 0 0
130 44 1 0.0000000000000000e+00 1.8697552314431626e+01 -2.0953762250901642e+00 1.0000000000000000e+01 0 0 0
136 46 1 0.0000000000000000e+00 1.9781059856541738e+01 -2.1027364566169879e+00 1.0000000000000000e+01 0 0 0
142 48 1 0.0000000000000000e+00 2.0900640131945494e+01 -2.1740212844283389e+00 1.0000000000000000e+01 0 0 0
148 50 1 0.0000000000000000e+00 2.1949386413354809e+01 -2.2339433036010599e+00 1.0000000000000000e+01 0 0 0
154 52 1 0.0000000000000000e+00 2.2964630679965797e+01 -2.2598125526075559e+00 1.0000000000000000e+01 0 0 0
160 54 1 0.0000000000000000e+00 2.3977651448569656e+01 -2.2426548570747142e+00 1.0000000000000000e+01 0 0 0
166 56 1 0.0000000000000000e+00 2.5018123569479613e+01 -2.1855094117219704e+00 1.0000000000000000e+01 0 0 0
184 62 1 0.0000000000000000e+00 2.7876658825700193e+01 -2.8391170975297966e+00 1.0000000000000000e+01 0 0 0
192 64 3 0.0000000000000000e+00 2.9645207061089984e+01 -2.3375164109721767e+00 1.0000000000000000e+01 0 0 0
191 64 2 0.0000000000000000e+00 3.0310776343599581e+01 -3.0717691110387206e+00 1.0000000000000000e+01 0 0 0
197 66 2 0.0000000000000000e+00 3.0912405125340459e+01 -2.0465410581413623e+00 1.0000000000000000e+01 0 0 0
196 66 1 0.0000000000000000e+00 3.1504349914010469e+01 -2.8590116883188434e+00 1.0000000000000000e+01 0 0 0
202 68 1 0.0000000000000000e+00 3.2143980244204059e+01 -2.1056159609038123e+00 1.0000000000000000e+01 0 0 0
208 70 1 0.0000000000000000e+00 3.3321976292727577e+01 -2.1160984537684819e+00 1.0000000000000000e+01 0 0 0
214 72 1 0.0000000000000000e+00 3.4483093869892357e+01 -2.1258934062074899e+00 1.0000000000000000e+01 0 0 0
220 74 1 0.0000000000000000e+00 3.5561961960000559e+01 -2.1388457730838866e+00 1.0000000000000000e+01 0 0 0
232 78 1 0.0000000000000000e+00 3.7605788707972202e+01 -2.0468172311802864e+00 1.0000000000000000e+01 0 0 0
238 80 1 0.0000000000000000e+00 3.8643141297793136e+01 -1.9482815366012869e+00 1.0000000000000000e+01 0 0 0
244 82 1 0.0000000000000000e+00 3.9723588279998154e+01 -1.8698434883247281e+00 1.0000000000000000e+01 0 0 0
268 90 1 0.0000000000000000e+00 4.3713589284207771e+01 -2.5958617030083020e+00 1.0000000000000000e+01 0 0 0
276 92 3 0.0000000000000000e+00 4.5497319816654105e+01 -2.1863014343532718e+00 1.0000000000000000e+01 0 0 0
275 92 2 0.0000000000000000e+00 4.6073039274244913e+01 -2.9928668920523052e+00 1.0000000000000000e+01 0 0 0
280 94 1 0.0000000000000000e+00 4.7267412964201398e+01 -2.8564863122545416e+00 1.0000000000000000e+01 0 0 0
292 98 1 0.0000000000000000e+00 4.8941799057282161e+01 -2.2580444863669400e+00 1.0000000000000000e+01 0 0 0
298 100 1 0.0000000000000000e+00 4.9911819325855980e+01 -2.3629692485172717e+00 1.0000000000000000e+01 0 0 0
304 102 1 0.0000000000000000e+00 5.0876436079939182e+01 -2.3983795634593275e+00 1.0000000000000000e+01 0 0 0
310 104 1 0.0000000000000000e+00 5.1851744784965042e+01 -2.3823833724816077e+00 1.0000000000000000e+01 0 0 0
316 106 1 0.0000000000000000e+00 5.2859421259948483e+01 -2.3548994703577435e+00 1.0000000000000000e+01 0 0 0
328 110 1 0.0000000000000000e+00 5.4224124332489779e+01 -3.3784725213038409e+00 1.0000000000000000e+01 0 0 0
322 108 1 0.0000000000000000e+00 5.3818387865546704e+01 -2.4844743404130485e+00 1.0000000000000000e+01 0 0 0
329 110 2 0.0000000000000000e+00 5.4954429762123105e+01 -2.6846658100693039e+00 1.0000000000000000e+01 0 0 0
336 112 3 0.0000000000000000e+00 5.6112307002084677e+01 -3.2169110391388358e+00 1.0000000000000000e+01 0 0 0
348 116 3 0.0000000000000000e+00 5.7373066267854952e+01 -3.4416156872567734e+00 1.0000000000000000e+01 0 0 0
353 118 2 0.0000000000000000e+00 5.8663573588443235e+01 -3.4095441632990706e+00 1.0000000000000000e+01 0 0 0
354 118 3 0.0000000000000000e+00 5.8242912315515220e+01 -2.5036271301931801e+00 1.0000000000000000e+01 0 0 0
359 120 2 0.0000000000000000e+00 5.9907058708461669e+01 -3.3883990824771040e+00 1.0000000000000000e+01 0 0 0
360 120 3 0.0000000000000000e+00 5.9542119458004393e+01 -2.4711355767265490e+00 1.0000000000000000e+01 0 0 0
365 122 2 0.0000000000000000e+00 6.1108612165892168e+01 -3.3588878420627890e+00 1.0000000000000000e+01 0 0 0
366 122 3 0.0000000000000000e+00 6.0836279671652967e+01 -2.4128188569471964e+00 1.0000000000000000e+01 0 0 0
371 124 2 0.0000000000000000e+00 6.2272738851037765e+01 -3.2969026405445820e+00 1.0000000000000000e+01 0 0 0
377 126 2 0.0000000000000000e+00 6.3423821723736452e+01 -3.1845035441226566e+00 1.0000000000000000e+01 0 0 0
383 128 2 0.0000000000000000e+00 6.4580054012690738e+01 -3.0459455731108855e+00 1.0000000000000000e+01 0 0 0
389 130 2 0.0000000000000000e+00 6.5762491893794191e+01 -2.9096483963042803e+00 1.0000000000000000e+01 0 0 0
395 132 2 0.0000000000000000e+00 6.6982657746904408e+01 -2.7727772539393944e+00 1.0000000000000000e+01 0 0 0
400 134 1 0.0000000000000000e+00 6.7855165668324659e+01 -3.6213551618672040e+00 1.0000000000000000e+01 0 0 0
401 134 2 0.0000000000000000e+00 6.8194707563247860e+01 -2.6676302456403902e+00 1.0000000000000000e+01 0 0 0
408 136 3 0.0000000000000000e+00 6.9432064737041600e+01 -2.6656104929745892e+00 1.0000000000000000e+01 0 0 0
407 136 2 0.0000000000000000e+00 7.0270253101266476e+01 -3.1943082058805246e+00 1.0000000000000000e+01 0 0 0
412 138 1 0.0000000000000000e+00 7.1353012498685388e+01 -2.6560652770243065e+00 1.0000000000000000e+01 0 0 0
472 158 1 0.0000000000000000e+00 8.0090257348585283e+01 -3.1841784444089818e+00 1.0000000000000000e+01 0 0 0
473 158 2 0.0000000000000000e+00 7.9923945479645255e+01 -2.1981218052862910e+00 1.0000000000000000e+01 0 0 0
478 160 1 0.0000000000000000e+00 8.1119886996853637e+01 -2.4114495273903680e+00 1.0000000000000000e+01 0 0 0
484 162 1 0.0000000000000000e+00 8.2040785226726740e+01 -2.3688995007988183e+00 1.0000000000000000e+01 0 0 0
490 164 1 0.0000000000000000e+00 8.2955132543077411e+01 -2.2076846389942171e+00 1.0000000000000000e+01 0 0 0
496 166 1 0.0000000000000000e+00 8.3756835623499654e+01 -3.0046766907068978e+00 1.0000000000000000e+01 0 0 0
503 168 2 0.0000000000000000e+00 8.5383353716533023e+01 -3.0281093903296221e+00 1.0000000000000000e+01 0 0 0
509 170 2 0.0000000000000000e+00 8.6520705673083611e+01 -2.7687048190537422e+00 1.0000000000000000e+01 0 0 0
514 172 1 0.0000000000000000e+00 8.7521077911522710e+01 -3.5242133286066588e+00 1.0000000000000000e+01 0 0 0
515 172 2 0.0000000000000000e+00 8.7691026038329909e+01 -2.5358232315982900e+00 1.0000000000000000e+01 0 0 0
520 174 1 0.0000000000000000e+00 8.8659719335092888e+01 -3.2708282364960821e+00 1.0000000000000000e+01 0 0 0
521 174 2 0.0000000000000000e+00 8.8909647137527941e+01 -2.2904787042923491e+00 1.0000000000000000e+01 0 0 0
527 176 2 0.0000000000000000e+00 8.9848896369718545e+01 -3.0787231097141983e+00 1.0000000000000000e+01 0 0 0
534 178 3 0.0000000000000000e+00 9.1113373625591365e+01 -3.0313974571092688e+00 1.0000000000000000e+01 0 0 0
539 180 2 0.0000000000000000e+00 9.2831002444245783e+01 -3.5121493678135374e+00 1.0000000000000000e+01 0 0 0
540 180 3 0.0000000000000000e+00 9.2334642538589549e+01 -2.6579343927155561e+00 1.0000000000000000e+01 0 0 0
546 182 3 0.0000000000000000e+00 9.3592924999795684e+01 -2.4342690747669988e+00 1.0000000000000000e+01 0 0 0
545 182 2 0.0000000000000000e+00 9.4009855576207116e+01 -3.3276924180581591e+00 1.0000000000000000e+01 0 0 0
552 184 3 0.0000000000000000e+00 9.4853929126385040e+01 -2.2576983845009582e+00 1.0000000000000000e+01 0 0 0
551 184 2 0.0000000000000000e+00 9.5169619464700915e+01 -3.1918031590511626e+00 1.0000000000000000e+01 0 0 0
557 186 2 0.0000000000000000e+00 9.6335280243398614e+01 -3.1699879412557106e+00 1.0000000000000000e+01 0 0 0
558 186 3 0.0000000000000000e+00 9.6122025095251672e+01 -2.2050095598226753e+00 1.0000000000000000e+01 0 0 0
562 188 1 0.0000000000000000e+00 9.7838165452321846e+01 -2.7771527047013782e+00 1.0000000000000000e+01 0 0 0
586 196 1 0.0000000000000000e+00 1.0164951039996888e+02 -2.2139523965090468e+00 1.0000000000000000e+01 0 0 0
682 228 1 0.0000000000000000e+00 1.1646893662074078e+02 -3.3045297725082694e+00 1.0000000000000000e+01 0 0 0
676 226 1 0.0000000000000000e+00 1.1622905287466840e+02 -2.1840797336407793e+00 1.0000000000000000e+01 0 0 0
683 228 2 0.0000000000000000e+00 1.1728882492041599e+02 -2.7321891194549899e+00 1.0000000000000000e+01 0 0 0
684 228 3 0.0000000000000000e+00 1.1810122133414217e+02 -2.1654109436762559e+00 1.0000000000000000e+01 0 0 0
688 230 1 0.0000000000000000e+00 1.1956487998934718e+02 -3.2047235597966086e+00 1.0000000000000000e+01 0 0 0
689 230 2 0.0000000000000000e+00 1.1929916696783657e+02 -2.2237406783507483e+00 1.0000000000000000e+01 0 0 0
694 232 1 0.0000000000000000e+00 1.2054594104430404e+02 -3.4123460013601621e+00 1.0000000000000000e+01 0 0 0
695 232 2 0.0000000000000000e+00 1.2042864822914896e+02 -2.4153731927406481e+00 1.0000000000000000e+01 0 0 0
701 234 2 0.0000000000000000e+00 1.2153062447683428e+02 -2.7078532156906716e+00 1.0000000000000000e+01 0 0 0
707 236 2 0.0000000000000000e+00 1.2274099587681150e+02 -3.2524631512552262e+00 1.0000000000000000e+01 0 0 0
708 236 3 0.0000000000000000e+00 1.2268546163831668e+02 -2.2662324119107677e+00 1.0000000000000000e+01 0 0 0
712 238 1 0.0000000000000000e+00 1.2404031705086628e+02 -3.5434213602542068e+00 1.0000000000000000e+01 0 0 0
713 238 2 0.0000000000000000e+00 1.2388718764099055e+02 -2.5480664702321554e+00 1.0000000000000000e+01 0 0 0
718 240 1 0.0000000000000000e+00 1.2495278627107825e+02 -3.0782502434361465e+00 1.0000000000000000e+01 0 0 0
724 242 1 0.0000000000000000e+00 1.2589405083227810e+02 -2.6877961638510315e+00 1.0000000000000000e+01 0 0 0
730 244 1 0.0000000000000000e+00 1.2681329426437433e+02 -2.5327368262657242e+00 1.0000000000000000e+01 0 0 0
736 246 1 0.0000000000000000e+00 1.2743694408921691e+02 -3.2476721442108047e+00 1.0000000000000000e+01 0 0 0
743 248 2 0.0000000000000000e+00 1.2863237075823557e+02 -3.4413434579446784e+00 1.0000000000000000e+01 0 0 0
744 248 3 0.0000000000000000e+00 1.2912480590836114e+02 -2.5806451239107244e+00 1.0000000000000000e+01 0 0 0
748 250 1 0.0000000000000000e+00 1.3080149670986435e+02 -3.1706712780412296e+00 1.0000000000000000e+01 0 0 0
754 252 1 0.0000000000000000e+00 1.3169684765853364e+02 -2.9428491003550121e+00 1.0000000000000000e+01 0 0 0
778 260 1 0.0000000000000000e+00 1.3497458913259402e+02 -3.3597802263234646e+00 1.0000000000000000e+01 0 0 0
784 262 1 0.0000000000000000e+00 1.3564220949764930e+02 -4.1059518446152854e+00 1.0000000000000000e+01 0 0 0
791 264 2 0.0000000000000000e+00 1.3688764776581468e+02 -4.1288423413869690e+00 1.0000000000000000e+01 0 0 0
785 262 2 0.0000000000000000e+00 1.3616798895760104e+02 -3.2530385141117355e+00 1.0000000000000000e+01 0 0 0
792 264 3 0.0000000000000000e+00 1.3753005130493540e+02 -3.3748074830961143e+00 1.0000000000000000e+01 0 0 0
804 268 3 0.0000000000000000e+00 1.3882836992419720e+02 -3.4220831899871600e+00 1.0000000000000000e+01 0 0 0
810 270 3 0.0000000000000000e+00 1.4010316720475399e+02 -3.1712274475726305e+00 1.0000000000000000e+01 0 0 0
815 272 2 0.0000000000000000e+00 1.4156157392253971e+02 -3.8954085456123679e+00 1.0000000000000000e+01 0 0 0
821 274 2 0.0000000000000000e+00 1.4266539663531617e+02 -3.6372952673433208e+00 1.0000000000000000e+01 0 0 0
816 272 3 0.0000000000000000e+00 1.4138496546339687e+02 -2.9271729705394502e+00 1.0000000000000000e+01 0 0 0
827 276 2 0.0000000000000000e+00 1.4378675714147570e+02 -3.3850086426512589e+00 1.0000000000000000e+01 0 0 0
834 278 3 0.0000000000000000e+00 1.4509350765285058e+02 -2.9871934945820895e+00 1.0000000000000000e+01 0 0 0
858 286 3 0.0000000000000000e+00 1.4800928167475797e+02 -2.4634290008890205e+00 1.0000000000000000e+01 0 0 0
857 286 2 0.0000000000000000e+00 1.4866813386565778e+02 -3.2072914406581452e+00 1.0000000000000000e+01 0 0 0
862 288 1 0.0000000000000000e+00 1.4989992262637259e+02 -3.1391996261511488e+00 1.0000000000000000e+01 0 0 0
863 288 2 0.0000000000000000e+00 1.4936018812053879e+02 -2.2930481989320461e+00 1.0000000000000000e+01 0 0 0
868 290 1 0.0000000000000000e+00 1.5088805410947725e+02 -2.9897506365485214e+00 1.0000000000000000e+01 0 0 0
869 290 2 0.0000000000000000e+00 1.5048831506476171e+02 -2.0722573296953386e+00 1.0000000000000000e+01 0 0 0
874 292 1 0.0000000000000000e+00 1.5185428348111816e+02 -2.8569105497781861e+00 1.0000000000000000e+01 0 0 0
875 292 2 0.0000000000000000e+00 1.5160924981562724e+02 -1.8867172437309492e+00 1.0000000000000000e+01 0 0 0
880 294 1 0.0000000000000000e+00 1.5280238614509372e+02 -2.6597764929106416e+00 1.0000000000000000e+01 0 0 0
886 296 1 0.0000000000000000e+00 1.5375087417963536e+02 -2.3982695115938748e+00 1.0000000000000000e+01 0 0 0
892 298 1 0.0000000000000000e+00 1.5473163269591413e+02 -2.1748655145150226e+00 1.0000000000000000e+01 0 0 0
898 300 1 0.0000000000000000e+00 1.5550543873724618e+02 -2.7666487177818011e+00 1.0000000000000000e+01 0 0 0
899 300 2 0.0000000000000000e+00 1.5590019953967811e+02 -1.8367533050937048e+00 1.0000000000000000e+01 0 0 0
906 302 3 0.0000000000000000e+00 1.5711427490874033e+02 -1.9141937062517791e+00 1.0000000000000000e+01 0 0 0
905 302 2 0.0000000000000000e+00 1.5786036154673556e+02 -2.5663394083510958e+00 1.0000000000000000e+01 0 0 0
910 304 1 0.0000000000000000e+00 1.5898694197029317e+02 -2.1466276639910937e+00 1.0000000000000000e+01 0 0 0
964 322 1 0.0000000000000000e+00 1.6818681171337764e+02 -2.4166186697748469e+00 1.0000000000000000e+01 0 0 0
1018 340 1 0.0000000000000000e+00 1.7627536096752209e+02 -2.0062985623938570e+00 1.0000000000000000e+01 0 0 0
1025 342 2 0.0000000000000000e+00 1.7862587276481821e+02 -2.3085728628697866e+00 1.0000000000000000e+01 0 0 0
1024 342 1 0.0000000000000000e+00 1.7921738118382666e+02 -3.1150127964062082e+00 1.0000000000000000e+01 0 0 0
1030 344 1 0.0000000000000000e+00 1.7981174863932176e+02 -2.1245500069209848e+00 1.0000000000000000e+01 0 0 0
1078 360 1 0.0000000000000000e+00 1.8707526181858461e+02 -3.3497987899591393e+00 1.0000000000000000e+01 0 0 0
1072 358 1 0.0000000000000000e+00 1.8631982054268462e+02 -2.6110967774721612e+00 1.0000000000000000e+01 0 0 0
1079 360 2 0.0000000000000000e+00 1.8758200724638533e+02 -2.4854345209812596e+00 1.0000000000000000e+01 0 0 0
1085 362 2 0.0000000000000000e+00 1.8836017542074180e+02 -3.3562724493874554e+00 1.0000000000000000e+01 0 0 0
1086 362 3 0.0000000000000000e+00 1.8894823717007193e+02 -2.5609086468856925e+00 1.0000000000000000e+01 0 0 0
1091 364 2 0.0000000000000000e+00 1.9003019683054950e+02 -3.2079851302488707e+00 1.0000000000000000e+01 0 0 0
1097 366 2 0.0000000000000000e+00 1.9119573764538436e+02 -3.0477468808090542e+00 1.0000000000000000e+01 0 0 0
1109 370 2 0.0000000000000000e+00 1.9323576555394362e+02 -3.7046798593948678e+00 1.0000000000000000e+01 0 0 0
1103 368 2 0.0000000000000000e+00 1.9237720881204734e+02 -2.9606656682141503e+00 1.0000000000000000e+01 0 0 0
1110 370 3 0.0000000000000000e+00 1.9374398683673274e+02 -2.8478206012246585e+00 1.0000000000000000e+01 0 0 0
1122 374 3 0.0000000000000000e+00 1.9544787885082499e+02 -3.0211803896654135e+00 1.0000000000000000e+01 0 0 0
1127 376 2 0.0000000000000000e+00 1.9673692825406712e+02 -3.5030037911016221e+00 1.0000000000000000e+01 0 0 0
1128 376 3 0.0000000000000000e+00 1.9663940808893190e+02 -2.5126950768384333e+00 1.0000000000000000e+01 0 0 0
1134 378 3 0.0000000000000000e+00 1.9786662469701176e+02 -2.9173658198991448e+00 1.0000000000000000e+01 0 0 0
1140 380 3 0.0000000000000000e+00 1.9906725669017658e+02 -3.3728925380813441e+00 1.0000000000000000e+01 0 0 0
1143 381 3 0.0000000000000000e+00 2.0013135609548124e+02 -2.5876324249776896e+00 1.0000000000000000e+01 0 0 0
1152 384 3 0.0000000000000000e+00 2.0126865722618248e+02 -3.2427438964307953e+00 1.0000000000000000e+01 0 0 0
1157 386 2 0.0000000000000000e+00 2.0249094923555299e+02 -3.6742068935367715e+00 1.0000000000000000e+01 0 0 0
1158 386 3 0.0000000000000000e+00 2.0242312814444779e+02 -2.6886864113795790e+00 1.0000000000000000e+01 0 0 0
1163 388 2 0.0000000000000000e+00 2.0357876832023797e+02 -3.1895827676203692e+00 1.0000000000000000e+01 0 0 0
1169 390 2 0.0000000000000000e+00 2.0462206231988833e+02 -3.6310908674793012e+00 1.0000000000000000e+01 0 0 0
1176 392 3 0.0000000000000000e+00 2.0585805952841818e+02 -3.4219404582847766e+00 1.0000000000000000e+01 0 0 0
1170 390 3 0.0000000000000000e+00 2.0482996830081538e+02 -2.6558042986076451e+00 1.0000000000000000e+01 0 0 0
1181 394 2 0.0000000000000000e+00 2.0703061631747741e+02 -3.1132719927353110e+00 1.0000000000000000e+01 0 0 0
1186 396 1 0.0000000000000000e+00 2.0824994904705306e+02 -3.2354703225702988e+00 1.0000000000000000e+01 0 0 0