ITEM: TIMESTEP
0
ITEM: NUMBER OF ATOMS
1920
ITEM: BOX BOUNDS pp pp pp
0.0000000000000000e+00 3.5000000000000000e+02
-5.0000000000000000e+00 5.0000000000000000e+00
0.0000000000000000e+00 2.0000000000000000e+01
ITEM: ATOMS id mol type x y z ix iy iz 
4 2 1 0 -2.51 10 0 0 0 
10 4 1 1.05 -2.51 10 0 0 0 
16 6 1 2.1 -2.51 10 0 0 0 
22 8 1 3.15 -2.51 10 0 0 0 
28 10 1 4.2 -2.51 10 0 0 0 
34 12 1 5.25 -2.51 10 0 0 0 
40 14 1 6.3 -2.51 10 0 0 0 
46 16 1 7.35 -2.51 10 0 0 0 
52 18 1 8.4 -2.51 10 0 0 0 
58 20 1 9.45 -2.51 10 0 0 0 
64 22 1 10.5 -2.51 10 0 0 0 
70 24 1 11.55 -2.51 10 0 0 0 
76 26 1 12.6 -2.51 10 0 0 0 
82 28 1 13.65 -2.51 10 0 0 0 
88 30 1 14.7 -2.51 10 0 0 0 
94 32 1 15.75 -2.51 10 0 0 0 
100 34 1 16.8 -2.51 10 0 0 0 
106 36 1 17.85 -2.51 10 0 0 0 
112 38 1 18.9 -2.51 10 0 0 0 
118 40 1 19.95 -2.51 10 0 0 0 
124 42 1 21 -2.51 10 0 0 0 
130 44 1 22.05 -2.51 10 0 0 0 
136 46 1 23.1 -2.51 10 0 0 0 
142 48 1 24.15 -2.51 10 0 0 0 
148 50 1 25.2 -2.51 10 0 0 0 
154 52 1 26.25 -2.51 10 0 0 0 
160 54 1 27.3 -2.51 10 0 0 0 
166 56 1 28.35 -2.51 10 0 0 0 
172 58 1 29.4 -2.51 10 0 0 0 
178 60 1 30.45 -2.51 10 0 0 0 
184 62 1 31.5 -2.51 10 0 0 0 
190 64 1 32.55 -2.51 10 0 0 0 
196 66 1 33.6 -2.51 10 0 0 0 
202 68 1 34.65 -2.51 10 0 0 0 
208 70 1 35.7 -2.51 10 0 0 0 
214 72 1 36.75 -2.51 10 0 0 0 
220 74 1 37.8 -2.51 10 0 0 0 
226 76 1 38.85 -2.51 10 0 0 0 
232 78 1 39.9 -2.51 10 0 0 0 
238 80 1 40.95 -2.51 10 0 0 0 
244 82 1 42 -2.51 10 0 0 0 
250 84 1 43.05 -2.51 10 0 0 0 
256 86 1 44.1 -2.51 10 0 0 0 
262 88 1 45.15 -2.51 10 0 0 0 
268 90 1 46.2 -2.51 10 0 0 0 
274 92 1 47.25 -2.51 10 0 0 0 
280 94 1 48.3 -2.51 10 0 0 0 
286 96 1 49.35 -2.51 10 0 0 0 
292 98 1 50.4 -2.51 10 0 0 0 
298 100 1 51.45 -2.51 10 0 0 0 
304 102 1 52.5 -2.51 10 0 0 0 
310 104 1 53.55 -2.51 10 0 0 0 
316 106 1 54.6 -2.51 10 0 0 0 
322 108 1 55.65 -2.51 10 0 0 0 
328 110 1 56.7 -2.51 10 0 0 0 
334 112 1 57.75 -2.51 10 0 0 0 
340 114 1 58.8 -2.51 10 0 0 0 
346 116 1 59.85 -2.51 10 0 0 0 
352 118 1 60.9 -2.51 10 0 0 0 
358 120 1 61.95 -2.51 10 0 0 0 
364 122 1 63 -2.51 10 0 0 0 
370 124 1 64.05 -2.51 10 0 0 0 
376 126 1 65.1 -2.51 10 0 0 0 
382 128 1 66.15 -2.51 10 0 0 0 
388 130 1 67.2 -2.51 10 0 0 0 
394 132 1 68.25 -2.51 10 0 0 0 
400 134 1 69.3 -2.51 10 0 0 0 
406 136 1 70.35 -2.51 10 0 0 0 
412 138 1 71.4 -2.51 10 0 0 0 
418 140 1 72.45 -2.51 10 0 0 0 
424 142 1 73.5 -2.51 10 0 0 0 
430 144 1 74.55 -2.51 10 0 0 0 
436 146 1 75.6 -2.51 10 0 0 0 
442 148 1 76.65 -2.51 10 0 0 0 
448 150 1 77.7 -2.51 10 0 0 0 
454 152 1 78.75 -2.51 10 0 0 0 
460 154 1 79.8 -2.51 10 0 0 0 
466 156 1 80.85 -2.51 10 0 0 0 
472 158 1 81.9 -2.51 10 0 0 0 
478 160 1 82.95 -2.51 10 0 0 0 
484 162 1 84 -2.51 10 0 0 0 
490 164 1 85.05 -2.51 10 0 0 0 
496 166 1 86.1 -2.51 10 0 0 0 
502 168 1 87.15 -2.51 10 0 0 0 
508 170 1 88.2 -2.51 10 0 0 0 
514 172 1 89.25 -2.51 10 0 0 0 
520 174 1 90.3 -2.51 10 0 0 0 
526 176 1 91.35 -2.51 10 0 0 0 
532 178 1 92.4 -2.51 10 0 0 0 
538 180 1 93.45 -2.51 10 0 0 0 
544 182 1 94.5 -2.51 10 0 0 0 
550 184 1 95.55 -2.51 10 0 0 0 
556 186 1 96.6 -2.51 10 0 0 0 
562 188 1 97.65 -2.51 10 0 0 0 
568 190 1 98.7 -2.51 10 0 0 0 
574 192 1 99.75 -2.51 10 0 0 0 
580 194 1 100.8 -2.51 10 0 0 0 
586 196 1 101.85 -2.51 10 0 0 0 
592 198 1 102.9 -2.51 10 0 0 0 
598 200 1 103.95 -2.51 10 0 0 0 
604 202 1 105 -2.51 10 0 0 0 
610 204 1 106.05 -2.51 10 0 0 0 
616 206 1 107.1 -2.51 10 0 0 0 
622 208 1 108.15 -2.51 10 0 0 0 
628 210 1 109.2 -2.51 10 0 0 0 
634 212 1 110.25 -2.51 10 0 0 0 
640 214 1 111.3 -2.51 10 0 0 0 
646 216 1 112.35 -2.51 10 0 0 0 
652 218 1 113.4 -2.51 10 0 0 0 
658 220 1 114.45 -2.51 10 0 0 0 
664 222 1 115.5 -2.51 10 0 0 0 
670 224 1 116.55 -2.51 10 0 0 0 
676 226 1 117.6 -2.51 10 0 0 0 
682 228 1 118.65 -2.51 10 0 0 0 
688 230 1 119.7 -2.51 10 0 0 0 
694 232 1 120.75 -2.51 10 0 0 0 
700 234 1 121.8 -2.51 10 0 0 0 
706 236 1 122.85 -2.51 10 0 0 0 
712 238 1 123.9 -2.51 10 0 0 0 
718 240 1 124.95 -2.51 10 0 0 0 
724 242 1 126 -2.51 10 0 0 0 
730 244 1 127.05 -2.51 10 0 0 0 
736 246 1 128.1 -2.51 10 0 0 0 
742 248 1 129.15 -2.51 10 0 0 0 
748 250 1 130.2 -2.51 10 0 0 0 
754 252 1 131.25 -2.51 10 0 0 0 
760 254 1 132.3 -2.51 10 0 0 0 
766 256 1 133.35 -2.51 10 0 0 0 
772 258 1 134.4 -2.51 10 0 0 0 
778 260 1 135.45 -2.51 10 0 0 0 
784 262 1 136.5 -2.51 10 0 0 0 
790 264 1 137.55 -2.51 10 0 0 0 
796 266 1 138.6 -2.51 10 0 0 0 
802 268 1 139.65 -2.51 10 0 0 0 
808 270 1 140.7 -2.51 10 0 0 0 
814 272 1 141.75 -2.51 10 0 0 0 
820 274 1 142.8 -2.51 10 0 0 0 
826 276 1 143.85 -2.51 10 0 0 0 
832 278 1 144.9 -2.51 10 0 0 0 
838 280 1 145.95 -2.51 10 0 0 0 
844 282 1 147 -2.51 10 0 0 0 
850 284 1 148.05 -2.51 10 0 0 0 
856 286 1 149.1 -2.51 10 0 0 0 
862 288 1 150.15 -2.51 10 0 0 0 
868 290 1 151.2 -2.51 10 0 0 0 
874 292 1 152.25 -2.51 10 0 0 0 
880 294 1 153.3 -2.51 10 0 0 0 
886 296 1 154.35 -2.51 10 0 0 0 
892 298 1 155.4 -2.51 10 0 0 0 
898 300 1 156.45 -2.51 10 0 0 0 
904 302 1 157.5 -2.51 10 0 0 0 
910 304 1 158.55 -2.51 10 0 0 0 
916 306 1 159.6 -2.51 10 0 0 0 
922 308 1 160.65 -2.51 10 0 0 0 
928 310 1 161.7 -2.51 10 0 0 0 
934 312 1 162.75 -2.51 10 0 0 0 
940 314 1 163.8 -2.51 10 0 0 0 
946 316 1 164.85 -2.51 10 0 0 0 
952 318 1 165.9 -2.51 10 0 0 0 
958 320 1 166.95 -2.51 10 0 0 0 
964 322 1 168 -2.51 10 0 0 0 
970 324 1 169.05 -2.51 10 0 0 0 
976 326 1 170.1 -2.51 10 0 0 0 
982 328 1 171.15 -2.51 10 0 0 0 
988 330 1 172.2 -2.51 10 0 0 0 
994 332 1 173.25 -2.51 10 0 0 0 
1000 334 1 174.3 -2.51 10 0 0 0 
1006 336 1 175.35 -2.51 10 0 0 0 
1012 338 1 176.4 -2.51 10 0 0 0 
1018 340 1 177.45 -2.51 10 0 0 0 
1024 342 1 178.5 -2.51 10 0 0 0 
1030 344 1 179.55 -2.51 10 0 0 0 
1036 346 1 180.6 -2.51 10 0 0 0 
1042 348 1 181.65 -2.51 10 0 0 0 
1048 350 1 182.7 -2.51 10 0 0 0 
1054 352 1 183.75 -2.51 10 0 0 0 
1060 354 1 184.8 -2.51 10 0 0 0 
1066 356 1 185.85 -2.51 10 0 0 0 
1072 358 1 186.9 -2.51 10 0 0 0 
1078 360 1 187.95 -2.51 10 0 0 0 
1084 362 1 189 -2.51 10 0 0 0 
1090 364 1 190.05 -2.51 10 0 0 0 
1096 366 1 191.1 -2.51 10 0 0 0 
1102 368 1 192.15 -2.51 10 0 0 0 
1108 370 1 193.2 -2.51 10 0 0 0 
1114 372 1 194.25 -2.51 10 0 0 0 
1120 374 1 195.3 -2.51 10 0 0 0 
1126 376 1 196.35 -2.51 10 0 0 0 
1132 378 1 197.4 -2.51 10 0 0 0 
1138 380 1 198.45 -2.51 10 0 0 0 
1144 382 1 199.5 -2.51 10 0 0 0 
1150 384 1 200.55 -2.51 10 0 0 0 
1156 386 1 201.6 -2.51 10 0 0 0 
1162 388 1 202.65 -2.51 10 0 0 0 
1168 390 1 203.7 -2.51 10 0 0 0 
1174 392 1 204.75 -2.51 10 0 0 0 
1180 394 1 205.8 -2.51 10 0 0 0 
1186 396 1 206.85 -2.51 10 0 0 0 
1192 398 1 207.9 -2.51 10 0 0 0 
1198 400 1 208.95 -2.51 10 0 0 0 
1204 402 1 210 -2.51 10 0 0 0 
1210 404 1 211.05 -2.51 10 0 0 0 
1216 406 1 212.1 -2.51 10 0 0 0 
1222 408 1 213.15 -2.51 10 0 0 0 
1228 410 1 214.2 -2.51 10 0 0 0 
1234 412 1 215.25 -2.51 10 0 0 0 
1240 414 1 216.3 -2.51 10 0 0 0 
1246 416 1 217.35 -2.51 10 0 0 0 
1252 418 1 218.4 -2.51 10 0 0 0 
1258 420 1 219.45 -2.51 10 0 0 0 
1264 422 1 220.5 -2.51 10 0 0 0 
1270 424 1 221.55 -2.51 10 0 0 0 
1276 426 1 222.6 -2.51 10 0 0 0 
1282 428 1 223.65 -2.51 10 0 0 0 
1288 430 1 224.7 -2.51 10 0 0 0 
1294 432 1 225.75 -2.51 10 0 0 0 
1300 434 1 226.8 -2.51 10 0 0 0 
1306 436 1 227.85 -2.51 10 0 0 0 
1312 438 1 228.9 -2.51 10 0 0 0 
1318 440 1 229.95 -2.51 10 0 0 0 
1324 442 1 231 -2.51 10 0 0 0 
1330 444 1 232.05 -2.51 10 0 0 0 
1336 446 1 233.1 -2.51 10 0 0 0 
1342 448 1 234.15 -2.51 10 0 0 0 
1348 450 1 235.2 -2.51 10 0 0 0 
1354 452 1 236.25 -2.51 10 0 0 0 
1360 454 1 237.3 -2.51 10 0 0 0 
1366 456 1 238.35 -2.51 10 0 0 0 
1372 458 1 239.4 -2.51 10 0 0 0 
1378 460 1 240.45 -2.51 10 0 0 0 
1384 462 1 241.5 -2.51 10 0 0 0 
1390 464 1 242.55 -2.51 10 0 0 0 
1396 466 1 243.6 -2.51 10 0 0 0 
1402 468 1 244.65 -2.51 10 0 0 0 
1408 470 1 245.7 -2.51 10 0 0 0 
1414 472 1 246.75 -2.51 10 0 0 0 
1420 474 1 247.8 -2.51 10 0 0 0 
1426 476 1 248.85 -2.51 10 0 0 0 
1432 478 1 249.9 -2.51 10 0 0 0 
1438 480 1 250.95 -2.51 10 0 0 0 
1444 482 1 252 -2.51 10 0 0 0 
1450 484 1 253.05 -2.51 10 0 0 0 
1456 486 1 254.1 -2.51 10 0 0 0 
1462 488 1 255.15 -2.51 10 0 0 0 
1468 490 1 256.2 -2.51 10 0 0 0 
1474 492 1 257.25 -2.51 10 0 0 0 
1480 494 1 258.3 -2.51 10 0 0 0 
1486 496 1 259.35 -2.51 10 0 0 0 
1492 498 1 260.4 -2.51 10 0 0 0 
1498 500 1 261.45 -2.51 10 0 0 0 
1504 502 1 262.5 -2.51 10 0 0 0 
1510 504 1 263.55 -2.51 10 0 0 0 
1516 506 1 264.6 -2.51 10 0 0 0 
1522 508 1 265.65 -2.51 10 0 0 0 
1528 510 1 266.7 -2.51 10 0 0 0 
1534 512 1 267.75 -2.51 10 0 0 0 
1540 514 1 268.8 -2.51 10 0 0 0 
1546 516 1 269.85 -2.51 10 0 0 0 
1552 518 1 270.9 -2.51 10 0 0 0 
1558 520 1 271.95 -2.51 10 0 0 0 
1564 522 1 273 -2.51 10 0 0 0 
1570 524 1 274.05 -2.51 10 0 0 0 
1576 526 1 275.1 -2.51 10 0 0 0 
1582 528 1 276.15 -2.51 10 0 0 0 
1588 530 1 277.2 -2.51 10 0 0 0 
1594 532 1 278.25 -2.51 10 0 0 0 
1600 534 1 279.3 -2.51 10 0 0 0 
1606 536 1 280.35 -2.51 10 0 0 0 
1612 538 1 281.4 -2.51 10 0 0 0 
1618 540 1 282.45 -2.51 10 0 0 0 
1624 542 1 283.5 -2.51 10 0 0 0 
1630 544 1 284.55 -2.51 10 0 0 0 
1636 546 1 285.6 -2.51 10 0 0 0 
1642 548 1 286.65 -2.51 10 0 0 0 
1648 550 1 287.7 -2.51 10 0 0 0 
1654 552 1 288.75 -2.51 10 0 0 0 
1660 554 1 289.8 -2.51 10 0 0 0 
1666 556 1 290.85 -2.51 10 0 0 0 
1672 558 1 291.9 -2.51 10 0 0 0 
1678 560 1 292.95 -2.51 10 0 0 0 
1684 562 1 294 -2.51 10 0 0 0 
1690 564 1 295.05 -2.51 10 0 0 0 
1696 566 1 296.1 -2.51 10 0 0 0 
1702 568 1 297.15 -2.51 10 0 0 0 
1708 570 1 298.2 -2.51 10 0 0 0 
1714 572 1 299.25 -2.51 10 0 0 0 
1720 574 1 300.3 -2.51 10 0 0 0 
1726 576 1 301.35 -2.51 10 0 0 0 
1732 578 1 302.4 -2.51 10 0 0 0 
1738 580 1 303.45 -2.51 10 0 0 0 
1744 582 1 304.5 -2.51 10 0 0 0 
1750 584 1 305.55 -2.51 10 0 0 0 
1756 586 1 306.6 -2.51 10 0 0 0 
1762 588 1 307.65 -2.51 10 0 0 0 
1768 590 1 308.7 -2.51 10 0 0 0 
1774 592 1 309.75 -2.51 10 0 0 0 
1780 594 1 310.8 -2.51 10 0 0 0 
1786 596 1 311.85 -2.51 10 0 0 0 
1792 598 1 312.9 -2.51 10 0 0 0 
1798 600 1 313.95 -2.51 10 0 0 0 
1804 602 1 315 -2.51 10 0 0 0 
1810 604 1 316.05 -2.51 10 0 0 0 
1816 606 1 317.1 -2.51 10 0 0 0 
1822 608 1 318.15 -2.51 10 0 0 0 
1828 610 1 319.2 -2.51 10 0 0 0 
1834 612 1 320.25 -2.51 10 0 0 0 
1840 614 1 321.3 -2.51 10 0 0 0 
1846 616 1 322.35 -2.51 10 0 0 0 
1852 618 1 323.4 -2.51 10 0 0 0 
1858 620 1 324.45 -2.51 10 0 0 0 
1864 622 1 325.5 -2.51 10 0 0 0 
1870 624 1 326.55 -2.51 10 0 0 0 
1876 626 1 327.6 -2.51 10 0 0 0 
1882 628 1 328.65 -2.51 10 0 0 0 
1888 630 1 329.7 -2.51 10 0 0 0 
1894 632 1 330.75 -2.51 10 0 0 0 
1900 634 1 331.8 -2.51 10 0 0 0 
1906 636 1 332.85 -2.51 10 0 0 0 
1912 638 1 333.9 -2.51 10 0 0 0 
1918 640 1 334.95 -2.51 10 0 0 0 
5 2 2 0 -1.51 10 0 0 0 
11 4 2 1.05 -1.51 10 0 0 0 
17 6 2 2.1 -1.51 10 0 0 0 
23 8 2 3.15 -1.51 10 0 0 0 
29 10 2 4.2 -1.51 10 0 0 0 
35 12 2 5.25 -1.51 10 0 0 0 
41 14 2 6.3 -1.51 10 0 0 0 
47 16 2 7.35 -1.51 10 0 0 0 
53 18 2 8.4 -1.51 10 0 0 0 
59 20 2 9.45 -1.51 10 0 0 0 
65 22 2 10.5 -1.51 10 0 0 0 
71 24 2 11.55 -1.51 10 0 0 0 
77 26 2 12.6 -1.51 10 0 0 0 
83 28 2 13.65 -1.51 10 0 0 0 
89 30 2 14.7 -1.51 10 0 0 0 
95 32 2 15.75 -1.51 10 0 0 0 
101 34 2 16.8 -1.51 10 0 0 0 
107 36 2 17.85 -1.51 10 0 0 0 
113 38 2 18.9 -1.51 10 0 0 0 
119 40 2 19.95 -1.51 10 0 0 0 
125 42 2 21 -1.51 10 0 0 0 
131 44 2 22.05 -1.51 10 0 0 0 
137 46 2 23.1 -1.51 10 0 0 0 
143 48 2 24.15 -1.51 10 0 0 0 
149 50 2 25.2 -1.51 10 0 0 0 
155 52 2 26.25 -1.51 10 0 0 0 
161 54 2 27.3 -1.51 10 0 0 0 
167 56 2 28.35 -1.51 10 0 0 0 
173 58 2 29.4 -1.51 10 0 0 0 
179 60 2 30.45 -1.51 10 0 0 0 
185 62 2 31.5 -1.51 10 0 0 0 
191 64 2 32.55 -1.51 10 0 0 0 
197 66 2 33.6 -1.51 10 0 0 0 
203 68 2 34.65 -1.51 10 0 0 0 
209 70 2 35.7 -1.51 10 0 0 0 
215 72 2 36.75 -1.51 10 0 0 0 
221 74 2 37.8 -1.51 10 0 0 0 
227 76 2 38.85 -1.51 10 0 0 0 
233 78 2 39.9 -1.51 10 0 0 0 
239 80 2 40.95 -1.51 10 0 0 0 
245 82 2 42 -1.51 10 0 0 0 
251 84 2 43.05 -1.51 10 0 0 0 
257 86 2 44.1 -1.51 10 0 0 0 
263 88 2 45.15 -1.51 10 0 0 0 
269 90 2 46.2 -1.51 10 0 0 0 
275 92 2 47.25 -1.51 10 0 0 0 
281 94 2 48.3 -1.51 10 0 0 0 
287 96 2 49.35 -1.51 10 0 0 0 
293 98 2 50.4 -1.51 10 0 0 0 
299 100 2 51.45 -1.51 10 0 0 0 
305 102 2 52.5 -1.51 10 0 0 0 
311 104 2 53.55 -1.51 10 0 0 0 
317 106 2 54.6 -1.51 10 0 0 0 
323 108 2 55.65 -1.51 10 0 0 0 
329 110 2 56.7 -1.51 10 0 0 0 
335 112 2 57.75 -1.51 10 0 0 0 
341 114 2 58.8 -1.51 10 0 0 0 
347 116 2 59.85 -1.51 10 0 0 0 
353 118 2 60.9 -1.51 10 0 0 0 
359 120 2 61.95 -1.51 10 0 0 0 
365 122 2 63 -1.51 10 0 0 0 
371 124 2 64.05 -1.51 10 0 0 0 
377 126 2 65.1 -1.51 10 0 0 0 
383 128 2 66.15 -1.51 10 0 0 0 
389 130 2 67.2 -1.51 10 0 0 0 
395 132 2 68.25 -1.51 10 0 0 0 
401 134 2 69.3 -1.51 10 0 0 0 
407 136 2 70.35 -1.51 10 0 0 0 
413 138 2 71.4 -1.51 10 0 0 0 
419 140 2 72.45 -1.51 10 0 0 0 
425 142 2 73.5 -1.51 10 0 0 0 
431 144 2 74.55 -1.51 10 0 0 0 
437 146 2 75.6 -1.51 10 0 0 0 
443 148 2 76.65 -1.51 10 0 0 0 
449 150 2 77.7 -1.51 10 0 0 0 
455 152 2 78.75 -1.51 10 0 0 0 
461 154 2 79.8 -1.51 10 0 0 0 
467 156 2 80.85 -1.51 10 0 0 0 
473 158 2 81.9 -1.51 10 0 0 0 
479 160 2 82.95 -1.51 10 0 0 0 
485 162 2 84 -1.51 10 0 0 0 
491 164 2 85.05 -1.51 10 0 0 0 
497 166 2 86.1 -1.51 10 0 0 0 
503 168 2 87.15 -1.51 10 0 0 0 
509 170 2 88.2 -1.51 10 0 0 0 
515 172 2 89.25 -1.51 10 0 0 0 
521 174 2 90.3 -1.51 10 0 0 0 
527 176 2 91.35 -1.51 10 0 0 0 
533 178 2 92.4 -1.51 10 0 0 0 
539 180 2 93.45 -1.51 10 0 0 0 
545 182 2 94.5 -1.51 10 0 0 0 
551 184 2 95.55 -1.51 10 0 0 0 
557 186 2 96.6 -1.51 10 0 0 0 
563 188 2 97.65 -1.51 10 0 0 0 
569 190 2 98.7 -1.51 10 0 0 0 
575 192 2 99.75 -1.51 10 0 0 0 
581 194 2 100.8 -1.51 10 0 0 0 
587 196 2 101.85 -1.51 10 0 0 0 
593 198 2 102.9 -1.51 10 0 0 0 
599 200 2 103.95 -1.51 10 0 0 0 
605 202 2 105 -1.51 10 0 0 0 
611 204 2 106.05 -1.51 10 0 0 0 
617 206 2 107.1 -1.51 10 0 0 0 
623 208 2 108.15 -1.51 10 0 0 0 
629 210 2 109.2 -1.51 10 0 0 0 
635 212 2 110.25 -1.51 10 0 0 0 
641 214 2 111.3 -1.51 10 0 0 0 
647 216 2 112.35 -1.51 10 0 0 0 
653 218 2 113.4 -1.51 10 0 0 0 
659 220 2 114.45 -1.51 10 0 0 0 
665 222 2 115.5 -1.51 10 0 0 0 
671 224 2 116.55 -1.51 10 0 0 0 
677 226 2 117.6 -1.51 10 0 0 0 
683 228 2 118.65 -1.51 10 0 0 0 
689 230 2 119.7 -1.51 10 0 0 0 
695 232 2 120.75 -1.51 10 0 0 0 
701 234 2 121.8 -1.51 10 0 0 0 
707 236 2 122.85 -1.51 10 0 0 0 
713 238 2 123.9 -1.51 10 0 0 0 
719 240 2 124.95 -1.51 10 0 0 0 
725 242 2 126 -1.51 10 0 0 0 
731 244 2 127.05 -1.51 10 0 0 0 
737 246 2 128.1 -1.51 10 0 0 0 
743 248 2 129.15 -1.51 10 0 0 0 
749 250 2 130.2 -1.51 10 0 0 0 
755 252 2 131.25 -1.51 10 0 0 0 
761 254 2 132.3 -1.51 10 0 0 0 
767 256 2 133.35 -1.51 10 0 0 0 
773 258 2 134.4 -1.51 10 0 0 0 
779 260 2 135.45 -1.51 10 0 0 0 
785 262 2 136.5 -1.51 10 0 0 0 
791 264 2 137.55 -1.51 10 0 0 0 
797 266 2 138.6 -1.51 10 0 0 0 
803 268 2 139.65 -1.51 10 0 0 0 
809 270 2 140.7 -1.51 10 0 0 0 
815 272 2 141.75 -1.51 10 0 0 0 
821 274 2 142.8 -1.51 10 0 0 0 
827 276 2 143.85 -1.51 10 0 0 0 
833 278 2 144.9 -1.51 10 0 0 0 
839 280 2 145.95 -1.51 10 0 0 0 
845 282 2 147 -1.51 10 0 0 0 
851 284 2 148.05 -1.51 10 0 0 0 
857 286 2 149.1 -1.51 10 0 0 0 
863 288 2 150.15 -1.51 10 0 0 0 
869 290 2 151.2 -1.51 10 0 0 0 
875 292 2 152.25 -1.51 10 0 0 0 
881 294 2 153.3 -1.51 10 0 0 0 
887 296 2 154.35 -1.51 10 0 0 0 
893 298 2 155.4 -1.51 10 0 0 0 
899 300 2 156.45 -1.51 10 0 0 0 
905 302 2 157.5 -1.51 10 0 0 0 
911 304 2 158.55 -1.51 10 0 0 0 
917 306 2 159.6 -1.51 10 0 0 0 
923 308 2 160.65 -1.51 10 0 0 0 
929 310 2 161.7 -1.51 10 0 0 0 
935 312 2 162.75 -1.51 10 0 0 0 
941 314 2 163.8 -1.51 10 0 0 0 
947 316 2 164.85 -1.51 10 0 0 0 
953 318 2 165.9 -1.51 10 0 0 0 
959 320 2 166.95 -1.51 10 0 0 0 
965 322 2 168 -1.51 10 0 0 0 
971 324 2 169.05 -1.51 10 0 0 0 
977 326 2 170.1 -1.51 10 0 0 0 
983 328 2 171.15 -1.51 10 0 0 0 
989 330 2 172.2 -1.51 10 0 0 0 
995 332 2 173.25 -1.51 10 0 0 0 
1001 334 2 174.3 -1.51 10 0 0 0 
1007 336 2 175.35 -1.51 10 0 0 0 
1013 338 2 176.4 -1.51 10 0 0 0 
1019 340 2 177.45 -1.51 10 0 0 0 
1025 342 2 178.5 -1.51 10 0 0 0 
1031 344 2 179.55 -1.51 10 0 0 0 
1037 346 2 180.6 -1.51 10 0 0 0 
1043 348 2 181.65 -1.51 10 0 0 0 
1049 350 2 182.7 -1.51 10 0 0 0 
1055 352 2 183.75 -1.51 10 0 0 0 
1061 354 2 184.8 -1.51 10 0 0 0 
1067 356 2 185.85 -1.51 10 0 0 0 
1073 358 2 186.9 -1.51 10 0 0 0 
1079 360 2 187.95 -1.51 10 0 0 0 
1085 362 2 189 -1.51 10 0 0 0 
1091 364 2 190.05 -1.51 10 0 0 0 
1097 366 2 191.1 -1.51 10 0 0 0 
1103 368 2 192.15 -1.51 10 0 0 0 
1109 370 2 193.2 -1.51 10 0 0 0 
1115 372 2 194.25 -1.51 10 0 0 0 
1121 374 2 195.3 -1.51 10 0 0 0 
1127 376 2 196.35 -1.51 10 0 0 0 
1133 378 2 197.4 -1.51 10 0 0 0 
1139 380 2 198.45 -1.51 10 0 0 0 
1145 382 2 199.5 -1.51 10 0 0 0 
1151 384 2 200.55 -1.51 10 0 0 0 
1157 386 2 201.6 -1.51 10 0 0 0 
1163 388 2 202.65 -1.51 10 0 0 0 
1169 390 2 203.7 -1.51 10 0 0 0 
1175 392 2 204.75 -1.51 10 0 0 0 
1181 394 2 205.8 -1.51 10 0 0 0 
1187 396 2 206.85 -1.51 10 0 0 0 
1193 398 2 207.9 -1.51 10 0 0 0 
1199 400 2 208.95 -1.51 10 0 0 0 
1205 402 2 210 -1.51 10 0 0 0 
1211 404 2 211.05 -1.51 10 0 0 0 
1217 406 2 212.1 -1.51 10 0 0 0 
1223 408 2 213.15 -1.51 10 0 0 0 
1229 410 2 214.2 -1.51 10 0 0 0 
1235 412 2 215.25 -1.51 10 0 0 0 
1241 414 2 216.3 -1.51 10 0 0 0 
1247 416 2 217.35 -1.51 10 0 0 0 
1253 418 2 218.4 -1.51 10 0 0 0 
1259 420 2 219.45 -1.51 10 0 0 0 
1265 422 2 220.5 -1.51 10 0 0 0 
1271 424 2 221.55 -1.51 10 0 0 0 
1277 426 2 222.6 -1.51 10 0 0 0 
1283 428 2 223.65 -1.51 10 0 0 0 
1289 430 2 224.7 -1.51 10 0 0 0 
1295 432 2 225.75 -1.51 10 0 0 0 
1301 434 2 226.8 -1.51 10 0 0 0 
1307 436 2 227.85 -1.51 10 0 0 0 
1313 438 2 228.9 -1.51 10 0 0 0 
1319 440 2 229.95 -1.51 10 0 0 0 
1325 442 2 231 -1.51 10 0 0 0 
1331 444 2 232.05 -1.51 10 0 0 0 
1337 446 2 233.1 -1.51 10 0 0 0 
1343 448 2 234.15 -1.51 10 0 0 0 
1349 450 2 235.2 -1.51 10 0 0 0 
1355 452 2 236.25 -1.51 10 0 0 0 
1361 454 2 237.3 -1.51 10 0 0 0 
1367 456 2 238.35 -1.51 10 0 0 0 
1373 458 2 239.4 -1.51 10 0 0 0 
1379 460 2 240.45 -1.51 10 0 0 0 
1385 462 2 241.5 -1.51 10 0 0 0 
1391 464 2 242.55 -1.51 10 0 0 0 
1397 466 2 243.6 -1.51 10 0 0 0 
1403 468 2 244.65 -1.51 10 0 0 0 
1409 470 2 245.7 -1.51 10 0 0 0 
1415 472 2 246.75 -1.51 10 0 0 0 
1421 474 2 247.8 -1.51 10 0 0 0 
1427 476 2 248.85 -1.51 10 0 0 0 
1433 478 2 249.9 -1.51 10 0 0 0 
1439 480 2 250.95 -1.51 10 0 0 0 
1445 482 2 252 -1.51 10 0 0 0 
1451 484 2 253.05 -1.51 10 0 0 0 
1457 486 2 254.1 -1.51 10 0 0 0 
1463 488 2 255.15 -1.51 10 0 0 0 
1469 490 2 256.2 -1.51 10 0 0 0 
1475 492 2 257.25 -1.51 10 0 0 0 
1481 494 2 258.3 -1.51 10 0 0 0 
1487 496 2 259.35 -1.51 10 0 0 0 
1493 498 2 260.4 -1.51 10 0 0 0 
1499 500 2 261.45 -1.51 10 0 0 0 
1505 502 2 262.5 -1.51 10 0 0 0 
1511 504 2 263.55 -1.51 10 0 0 0 
1517 506 2 264.6 -1.51 10 0 0 0 
1523 508 2 265.65 -1.51 10 0 0 0 
1529 510 2 266.7 -1.51 10 0 0 0 
1535 512 2 267.75 -1.51 10 0 0 0 
1541 514 2 268.8 -1.51 10 0 0 0 
1547 516 2 269.85 -1.51 10 0 0 0 
1553 518 2 270.9 -1.51 10 0 0 0 
1559 520 2 271.95 -1.51 10 0 0 0 
1565 522 2 273 -1.51 10 0 0 0 
1571 524 2 274.05 -1.51 10 0 0 0 
1577 526 2 275.1 -1.51 10 0 0 0 
1583 528 2 276.15 -1.51 10 0 0 0 
1589 530 2 277.2 -1.51 10 0 0 0 
1595 532 2 278.25 -1.51 10 0 0 0 
1601 534 2 279.3 -1.51 10 0 0 0 
1607 536 2 280.35 -1.51 10 0 0 0 
1613 538 2 281.4 -1.51 10 0 0 0 
1619 540 2 282.45 -1.51 10 0 0 0 
1625 542 2 283.5 -1.51 10 0 0 0 
1631 544 2 284.55 -1.51 10 0 0 0 
1637 546 2 285.6 -1.51 10 0 0 0 
1643 548 2 286.65 -1.51 10 0 0 0 
1649 550 2 287.7 -1.51 10 0 0 0 
1655 552 2 288.75 -1.51 10 0 0 0 
1661 554 2 289.8 -1.51 10 0 0 0 
1667 556 2 290.85 -1.51 10 0 0 0 
1673 558 2 291.9 -1.51 10 0 0 0 
1679 560 2 292.95 -1.51 10 0 0 0 
1685 562 2 294 -1.51 10 0 0 0 
1691 564 2 295.05 -1.51 10 0 0 0 
1697 566 2 296.1 -1.51 10 0 0 0 
1703 568 2 297.15 -1.51 10 0 0 0 
1709 570 2 298.2 -1.51 10 0 0 0 
1715 572 2 299.25 -1.51 10 0 0 0 
1721 574 2 300.3 -1.51 10 0 0 0 
1727 576 2 301.35 -1.51 10 0 0 0 
1733 578 2 302.4 -1.51 10 0 0 0 
1739 580 2 303.45 -1.51 10 0 0 0 
1745 582 2 304.5 -1.51 10 0 0 0 
1751 584 2 305.55 -1.51 10 0 0 0 
1757 586 2 306.6 -1.51 10 0 0 0 
1763 588 2 307.65 -1.51 10 0 0 0 
1769 590 2 308.7 -1.51 10 0 0 0 
1775 592 2 309.75 -1.51 10 0 0 0 
1781 594 2 310.8 -1.51 10 0 0 0 
1787 596 2 311.85 -1.51 10 0 0 0 
1793 598 2 312.9 -1.51 10 0 0 0 
1799 600 2 313.95 -1.51 10 0 0 0 
1805 602 2 315 -1.51 10 0 0 0 
1811 604 2 316.05 -1.51 10 0 0 0 
1817 606 2 317.1 -1.51 10 0 0 0 
1823 608 2 318.15 -1.51 10 0 0 0 
1829 610 2 319.2 -1.51 10 0 0 0 
1835 612 2 320.25 -1.51 10 0 0 0 
1841 614 2 321.3 -1.51 10 0 0 0 
1847 616 2 322.35 -1.51 10 0 0 0 
1853 618 2 323.4 -1.51 10 0 0 0 
1859 620 2 324.45 -1.51 10 0 0 0 
1865 622 2 325.5 -1.51 10 0 0 0 
1871 624 2 326.55 -1.51 10 0 0 0 
1877 626 2 327.6 -1.51 10 0 0 0 
1883 628 2 328.65 -1.51 10 0 0 0 
1889 630 2 329.7 -1.51 10 0 0 0 
1895 632 2 330.75 -1.51 10 0 0 0 
1901 634 2 331.8 -1.51 10 0 0 0 
1907 636 2 332.85 -1.51 10 0 0 0 
1913 638 2 333.9 -1.51 10 0 0 0 
1919 640 2 334.95 -1.51 10 0 0 0 
3 1 3 0 0.51 10 0 0 0 
6 2 3 0 -0.51 10 0 0 0 
9 3 3 1.05 0.51 10 0 0 0 
12 4 3 1.05 -0.51 10 0 0 0 
15 5 3 2.1 0.51 10 0 0 0 
18 6 3 2.1 -0.51 10 0 0 0 
21 7 3 3.15 0.51 10 0 0 0 
24 8 3 3.15 -0.51 10 0 0 0 
27 9 3 4.2 0.51 10 0 0 0 
30 10 3 4.2 -0.51 10 0 0 0 
33 11 3 5.25 0.51 10 0 0 0 
36 12 3 5.25 -0.51 10 0 0 0 
39 13 3 6.3 0.51 10 0 0 0 
42 14 3 6.3 -0.51 10 0 0 0 
45 15 3 7.35 0.51 10 0 0 0 
48 16 3 7.35 -0.51 10 0 0 0 
51 17 3 8.4 0.51 10 0 0 0 
54 18 3 8.4 -0.51 10 0 0 0 
57 19 3 9.45 0.51 10 0 0 0 
60 20 3 9.45 -0.51 10 0 0 0 
63 21 3 10.5 0.51 10 0 0 0 
66 22 3 10.5 -0.51 10 0 0 0 
69 23 3 11.55 0.51 10 0 0 0 
72 24 3 11.55 -0.51 10 0 0 0 
75 25 3 12.6 0.51 10 0 0 0 
78 26 3 12.6 -0.51 10 0 0 0 
81 27 3 13.65 0.51 10 0 0 0 
84 28 3 13.65 -0.51 10 0 0 0 
87 29 3 14.7 0.51 10 0 0 0 
90 30 3 14.7 -0.51 10 0 0 0 
93 31 3 15.75 0.51 10 0 0 0 
96 32 3 15.75 -0.51 10 0 0 0 
99 33 3 16.8 0.51 10 0 0 0 
102 34 3 16.8 -0.51 10 0 0 0 
105 35 3 17.85 0.51 10 0 0 0 
108 36 3 17.85 -0.51 10 0 0 0 
111 37 3 18.9 0.51 10 0 0 0 
114 38 3 18.9 -0.51 10 0 0 0 
117 39 3 19.95 0.51 10 0 0 0 
120 40 3 19.95 -0.51 10 0 0 0 
123 41 3 21 0.51 10 0 0 0 
126 42 3 21 -0.51 10 0 0 0 
129 43 3 22.05 0.51 10 0 0 0 
132 44 3 22.05 -0.51 10 0 0 0 
135 45 3 23.1 0.51 10 0 0 0 
138 46 3 23.1 -0.51 10 0 0 0 
141 47 3 24.15 0.51 10 0 0 0 
144 48 3 24.15 -0.51 10 0 0 0 
147 49 3 25.2 0.51 10 0 0 0 
150 50 3 25.2 -0.51 10 0 0 0 
153 51 3 26.25 0.51 10 0 0 0 
156 52 3 26.25 -0.51 10 0 0 0 
159 53 3 27.3 0.51 10 0 0 0 
162 54 3 27.3 -0.51 10 0 0 0 
165 55 3 28.35 0.51 10 0 0 0 
168 56 3 28.35 -0.51 10 0 0 0 
171 57 3 29.4 0.51 10 0 0 0 
174 58 3 29.4 -0.51 10 0 0 0 
177 59 3 30.45 0.51 10 0 0 0 
180 60 3 30.45 -0.51 10 0 0 0 
183 61 3 31.5 0.51 10 0 0 0 
186 62 3 31.5 -0.51 10 0 0 0 
189 63 3 32.55 0.51 10 0 0 0 
192 64 3 32.55 -0.51 10 0 0 0 
195 65 3 33.6 0.51 10 0 0 0 
198 66 3 33.6 -0.51 10 0 0 0 
201 67 3 34.65 0.51 10 0 0 0 
204 68 3 34.65 -0.51 10 0 0 0 
207 69 3 35.7 0.51 10 0 0 0 
210 70 3 35.7 -0.51 10 0 0 0 
213 71 3 36.75 0.51 10 0 0 0 
216 72 3 36.75 -0.51 10 0 0 0 
219 73 3 37.8 0.51 10 0 0 0 
222 74 3 37.8 -0.51 10 0 0 0 
225 75 3 38.85 0.51 10 0 0 0 
228 76 3 38.85 -0.51 10 0 0 0 
231 77 3 39.9 0.51 10 0 0 0 
234 78 3 39.9 -0.51 10 0 0 0 
237 79 3 40.95 0.51 10 0 0 0 
240 80 3 40.95 -0.51 10 0 0 0 
243 81 3 42 0.51 10 0 0 0 
246 82 3 42 -0.51 10 0 0 0 
249 83 3 43.05 0.51 10 0 0 0 
252 84 3 43.05 -0.51 10 0 0 0 
255 85 3 44.1 0.51 10 0 0 0 
258 86 3 44.1 -0.51 10 0 0 0 
261 87 3 45.15 0.51 10 0 0 0 
264 88 3 45.15 -0.51 10 0 0 0 
267 89 3 46.2 0.51 10 0 0 0 
270 90 3 46.2 -0.51 10 0 0 0 
273 91 3 47.25 0.51 10 0 0 0 
276 92 3 47.25 -0.51 10 0 0 0 
279 93 3 48.3 0.51 10 0 0 0 
282 94 3 48.3 -0.51 10 0 0 0 
285 95 3 49.35 0.51 10 0 0 0 
288 96 3 49.35 -0.51 10 0 0 0 
291 97 3 50.4 0.51 10 0 0 0 
294 98 3 50.4 -0.51 10 0 0 0 
297 99 3 51.45 0.51 10 0 0 0 
300 100 3 51.45 -0.51 10 0 0 0 
303 101 3 52.5 0.51 10 0 0 0 
306 102 3 52.5 -0.51 10 0 0 0 
309 103 3 53.55 0.51 10 0 0 0 
312 104 3 53.55 -0.51 10 0 0 0 
315 105 3 54.6 0.51 10 0 0 0 
318 106 3 54.6 -0.51 10 0 0 0 
321 107 3 55.65 0.51 10 0 0 0 
324 108 3 55.65 -0.51 10 0 0 0 
327 109 3 56.7 0.51 10 0 0 0 
330 110 3 56.7 -0.51 10 0 0 0 
333 111 3 57.75 0.51 10 0 0 0 
336 112 3 57.75 -0.51 10 0 0 0 
339 113 3 58.8 0.51 10 0 0 0 
342 114 3 58.8 -0.51 10 0 0 0 
345 115 3 59.85 0.51 10 0 0 0 
348 116 3 59.85 -0.51 10 0 0 0 
351 117 3 60.9 0.51 10 0 0 0 
354 118 3 60.9 -0.51 10 0 0 0 
357 119 3 61.95 0.51 10 0 0 0 
360 120 3 61.95 -0.51 10 0 0 0 
363 121 3 63 0.51 10 0 0 0 
366 122 3 63 -0.51 10 0 0 0 
369 123 3 64.05 0.51 10 0 0 0 
372 124 3 64.05 -0.51 10 0 0 0 
375 125 3 65.1 0.51 10 0 0 0 
378 126 3 65.1 -0.51 10 0 0 0 
381 127 3 66.15 0.51 10 0 0 0 
384 128 3 66.15 -0.51 10 0 0 0 
387 129 3 67.2 0.51 10 0 0 0 
390 130 3 67.2 -0.51 10 0 0 0 
393 131 3 68.25 0.51 10 0 0 0 
396 132 3 68.25 -0.51 10 0 0 0 
399 133 3 69.3 0.51 10 0 0 0 
402 134 3 69.3 -0.51 10 0 0 0 
405 135 3 70.35 0.51 10 0 0 0 
408 136 3 70.35 -0.51 10 0 0 0 
411 137 3 71.4 0.51 10 0 0 0 
414 138 3 71.4 -0.51 10 0 0 0 
417 139 3 72.45 0.51 10 0 0 0 
420 140 3 72.45 -0.51 10 0 0 0 
423 141 3 73.5 0.51 10 0 0 0 
426 142 3 73.5 -0.51 10 0 0 0 
429 143 3 74.55 0.51 10 0 0 0 
432 144 3 74.55 -0.51 10 0 0 0 
435 145 3 75.6 0.51 10 0 0 0 
438 146 3 75.6 -0.51 10 0 0 0 
441 147 3 76.65 0.51 10 0 0 0 
444 148 3 76.65 -0.51 10 0 0 0 
447 149 3 77.7 0.51 10 0 0 0 
450 150 3 77.7 -0.51 10 0 0 0 
453 151 3 78.75 0.51 10 0 0 0 
456 152 3 78.75 -0.51 10 0 0 0 
459 153 3 79.8 0.51 10 0 0 0 
462 154 3 79.8 -0.51 10 0 0 0 
465 155 3 80.85 0.51 10 0 0 0 
468 156 3 80.85 -0.51 10 0 0 0 
471 157 3 81.9 0.51 10 0 0 0 
474 158 3 81.9 -0.51 10 0 0 0 
477 159 3 82.95 0.51 10 0 0 0 
480 160 3 82.95 -0.51 10 0 0 0 
483 161 3 84 0.51 10 0 0 0 
486 162 3 84 -0.51 10 0 0 0 
489 163 3 85.05 0.51 10 0 0 0 
492 164 3 85.05 -0.51 10 0 0 0 
495 165 3 86.1 0.51 10 0 0 0 
498 166 3 86.1 -0.51 10 0 0 0 
501 167 3 87.15 0.51 10 0 0 0 
504 168 3 87.15 -0.51 10 0 0 0 
507 169 3 88.2 0.51 10 0 0 0 
510 170 3 88.2 -0.51 10 0 0 0 
513 171 3 89.25 0.51 10 0 0 0 
516 172 3 89.25 -0.51 10 0 0 0 
519 173 3 90.3 0.51 10 0 0 0 
522 174 3 90.3 -0.51 10 0 0 0 
525 175 3 91.35 0.51 10 0 0 0 
528 176 3 91.35 -0.51 10 0 0 0 
531 177 3 92.4 0.51 10 0 0 0 
534 178 3 92.4 -0.51 10 0 0 0 
537 179 3 93.45 0.51 10 0 0 0 
540 180 3 93.45 -0.51 10 0 0 0 
543 181 3 94.5 0.51 10 0 0 0 
546 182 3 94.5 -0.51 10 0 0 0 
549 183 3 95.55 0.51 10 0 0 0 
552 184 3 95.55 -0.51 10 0 0 0 
555 185 3 96.6 0.51 10 0 0 0 
558 186 3 96.6 -0.51 10 0 0 0 
561 187 3 97.65 0.51 10 0 0 0 
564 188 3 97.65 -0.51 10 0 0 0 
567 189 3 98.7 0.51 10 0 0 0 
570 190 3 98.7 -0.51 10 0 0 0 
573 191 3 99.75 0.51 10 0 0 0 
576 192 3 99.75 -0.51 10 0 0 0 
579 193 3 100.8 0.51 10 0 0 0 
582 194 3 100.8 -0.51 10 0 0 0 
585 195 3 101.85 0.51 10 0 0 0 
588 196 3 101.85 -0.51 10 0 0 0 
591 197 3 102.9 0.51 10 0 0 0 
594 198 3 102.9 -0.51 10 0 0 0 
597 199 3 103.95 0.51 10 0 0 0 
600 200 3 103.95 -0.51 10 0 0 0 
603 201 3 105 0.51 10 0 0 0 
606 202 3 105 -0.51 10 0 0 0 
609 203 3 106.05 0.51 10 0 0 0 
612 204 3 106.05 -0.51 10 0 0 0 
615 205 3 107.1 0.51 10 0 0 0 
618 206 3 107.1 -0.51 10 0 0 0 
621 207 3 108.15 0.51 10 0 0 0 
624 208 3 108.15 -0.51 10 0 0 0 
627 209 3 109.2 0.51 10 0 0 0 
630 210 3 109.2 -0.51 10 0 0 0 
633 211 3 110.25 0.51 10 0 0 0 
636 212 3 110.25 -0.51 10 0 0 0 
639 213 3 111.3 0.51 10 0 0 0 
642 214 3 111.3 -0.51 10 0 0 0 
645 215 3 112.35 0.51 10 0 0 0 
648 216 3 112.35 -0.51 10 0 0 0 
651 217 3 113.4 0.51 10 0 0 0 
654 218 3 113.4 -0.51 10 0 0 0 
657 219 3 114.45 0.51 10 0 0 0 
660 220 3 114.45 -0.51 10 0 0 0 
663 221 3 115.5 0.51 10 0 0 0 
666 222 3 115.5 -0.51 10 0 0 0 
669 223 3 116.55 0.51 10 0 0 0 
672 224 3 116.55 -0.51 10 0 0 0 
675 225 3 117.6 0.51 10 0 0 0 
678 226 3 117.6 -0.51 10 0 0 0 
681 227 3 118.65 0.51 10 0 0 0 
684 228 3 118.65 -0.51 10 0 0 0 
687 229 3 119.7 0.51 10 0 0 0 
690 230 3 119.7 -0.51 10 0 0 0 
693 231 3 120.75 0.51 10 0 0 0 
696 232 3 120.75 -0.51 10 0 0 0 
699 233 3 121.8 0.51 10 0 0 0 
702 234 3 121.8 -0.51 10 0 0 0 
705 235 3 122.85 0.51 10 0 0 0 
708 236 3 122.85 -0.51 10 0 0 0 
711 237 3 123.9 0.51 10 0 0 0 
714 238 3 123.9 -0.51 10 0 0 0 
717 239 3 124.95 0.51 10 0 0 0 
720 240 3 124.95 -0.51 10 0 0 0 
723 241 3 126 0.51 10 0 0 0 
726 242 3 126 -0.51 10 0 0 0 
729 243 3 127.05 0.51 10 0 0 0 
732 244 3 127.05 -0.51 10 0 0 0 
735 245 3 128.1 0.51 10 0 0 0 
738 246 3 128.1 -0.51 10 0 0 0 
741 247 3 129.15 0.51 10 0 0 0 
744 248 3 129.15 -0.51 10 0 0 0 
747 249 3 130.2 0.51 10 0 0 0 
750 250 3 130.2 -0.51 10 0 0 0 
753 251 3 131.25 0.51 10 0 0 0 
756 252 3 131.25 -0.51 10 0 0 0 
759 253 3 132.3 0.51 10 0 0 0 
762 254 3 132.3 -0.51 10 0 0 0 
765 255 3 133.35 0.51 10 0 0 0 
768 256 3 133.35 -0.51 10 0 0 0 
771 257 3 134.4 0.51 10 0 0 0 
774 258 3 134.4 -0.51 10 0 0 0 
777 259 3 135.45 0.51 10 0 0 0 
780 260 3 135.45 -0.51 10 0 0 0 
783 261 3 136.5 0.51 10 0 0 0 
786 262 3 136.5 -0.51 10 0 0 0 
789 263 3 137.55 0.51 10 0 0 0 
792 264 3 137.55 -0.51 10 0 0 0 
795 265 3 138.6 0.51 10 0 0 0 
798 266 3 138.6 -0.51 10 0 0 0 
801 267 3 139.65 0.51 10 0 0 0 
804 268 3 139.65 -0.51 10 0 0 0 
807 269 3 140.7 0.51 10 0 0 0 
810 270 3 140.7 -0.51 10 0 0 0 
813 271 3 141.75 0.51 10 0 0 0 
816 272 3 141.75 -0.51 10 0 0 0 
819 273 3 142.8 0.51 10 0 0 0 
822 274 3 142.8 -0.51 10 0 0 0 
825 275 3 143.85 0.51 10 0 0 0 
828 276 3 143.85 -0.51 10 0 0 0 
831 277 3 144.9 0.51 10 0 0 0 
834 278 3 144.9 -0.51 10 0 0 0 
837 279 3 145.95 0.51 10 0 0 0 
840 280 3 145.95 -0.51 10 0 0 0 
843 281 3 147 0.51 10 0 0 0 
846 282 3 147 -0.51 10 0 0 0 
849 283 3 148.05 0.51 10 0 0 0 
852 284 3 148.05 -0.51 10 0 0 0 
855 285 3 149.1 0.51 10 0 0 0 
858 286 3 149.1 -0.51 10 0 0 0 
861 287 3 150.15 0.51 10 0 0 0 
864 288 3 150.15 -0.51 10 0 0 0 
867 289 3 151.2 0.51 10 0 0 0 
870 290 3 151.2 -0.51 10 0 0 0 
873 291 3 152.25 0.51 10 0 0 0 
876 292 3 152.25 -0.51 10 0 0 0 
879 293 3 153.3 0.51 10 0 0 0 
882 294 3 153.3 -0.51 10 0 0 0 
885 295 3 154.35 0.51 10 0 0 0 