LAMMPS (7 Aug 2019)
# -------- REQUIREMENTS: ---------
# 1) This example may require additional features and bug fixes for LAMMPS.
#   Be sure to download and copy the "additional_lammps_code" from
#   http://moltemplate.org     (upper-left corner menu)
# 2) Unpack it
# 3) copy the .cpp and .h files to the src folding of your lammps installation.
# 4) Compile LAMMPS.
#
# (If LAMMPS complains about an "Invalid pair_style"
#  then you made a mistake in the instructions above.)
#

# -- Init Section --

include system.in.init
    dimension 3
    boundary        p p p
    units           lj
    atom_style      full

    bond_style      harmonic
    angle_style     harmonic
    pair_style      table linear 500
#    pair_modify     shift yes
    special_bonds lj 0.0 0.0 0.0

    neigh_modify    every 1 delay 1
    neighbor        0.3 bin

# -- Atom Definition Section --

read_data system_after_min.data
  orthogonal box = (0 0 0) to (38 38 30)
  1 by 1 by 1 MPI processor grid
  reading atoms ...
  6144 atoms
  reading velocities ...
  6144 velocities
  scanning bonds ...
  1 = max bonds/atom
  scanning angles ...
  1 = max angles/atom
  reading bonds ...
  4096 bonds
  reading angles ...
  2048 angles
  2 = max # of 1-2 neighbors
  1 = max # of 1-3 neighbors
  1 = max # of 1-4 neighbors
  2 = max # of special neighbors
  special bonds CPU = 0.00466013 secs
  read_data CPU = 0.0550351 secs

# -- Settings Section --

include system.in.settings
    pair_coeff  1 1 farago2003_tabulated_potential_Mar18_withzerocorrection.dat HEAD_HEAD
WARNING: 5 of 251 force values in table are inconsistent with -dE/dr.
  Should only be flagged at inflection points (../pair_table.cpp:483)
    pair_coeff  2 2 farago2003_tabulated_potential_Mar18_withzerocorrection.dat TAIL1_TAIL1
WARNING: 2 of 251 force values in table are inconsistent with -dE/dr.
  Should only be flagged at inflection points (../pair_table.cpp:483)
    pair_coeff  3 3 farago2003_tabulated_potential_Mar18_withzerocorrection.dat TAIL2_TAIL2
WARNING: 2 of 251 force values in table are inconsistent with -dE/dr.
  Should only be flagged at inflection points (../pair_table.cpp:483)
    pair_coeff  2 3 farago2003_tabulated_potential_Mar18_withzerocorrection.dat TAIL1_TAIL2
WARNING: 2 of 251 force values in table are inconsistent with -dE/dr.
  Should only be flagged at inflection points (../pair_table.cpp:483)
    pair_coeff  1 2 farago2003_tabulated_potential_Mar18_withzerocorrection.dat HEAD_TAIL1
WARNING: 5 of 251 force values in table are inconsistent with -dE/dr.
  Should only be flagged at inflection points (../pair_table.cpp:483)
    pair_coeff  1 3 farago2003_tabulated_potential_Mar18_withzerocorrection.dat HEAD_TAIL2
WARNING: 1 of 251 force values in table are inconsistent with -dE/dr.
  Should only be flagged at inflection points (../pair_table.cpp:483)
    bond_coeff  1   3000.0 1.0
    bond_coeff  2   3000.0 1.0
    angle_coeff 1  3000.0 180.0

# -- Run Section --


timestep      0.005
dump          1 all custom 500 traj_nve.lammpstrj id mol type x y z ix iy iz


thermo_style  custom step temp pe etotal vol epair ebond eangle
thermo        10  # time interval for printing out "thermo" data

velocity all create 1 12345
fix 1 all restrain bond 1 2 3000.0 3000.0 1.0
fix 2 all restrain angle 1 2 3 3000.0 3000.0 180.0
#group LIPID id 1:6144
#fix 1 all setforce 0 0 0
fix	3 all nve

# Note: The temperature is 1.1*ε
#       (ε = "epsilon" used by the coarse-grained lipid)
# Note: The langevin damping parameter is now "50.0" in units of time
#       (which are (m/(ε*σ^2))^(1/2) because we are using "units lj"
#        This is grossly underdamped compared to the real system,
#        but it leads to more efficient sampling.)
# Note: We maintain the system system at constant (zero) tention
#       using a barostat damping parameter Pdamp=1000 ("0 0 1000")



# optional (not sure if this helps):
# balance x uniform y uniform


run           100000
Neighbor list info ...
  update every 1 steps, delay 1 steps, check yes
  max neighbors/atom: 2000, page size: 100000
  master list distance cutoff = 2.8
  ghost atom cutoff = 2.8
  binsize = 1.4, bins = 28 28 22
  1 neighbor lists, perpetual/occasional/extra = 1 0 0
  (1) pair table, perpetual
      attributes: half, newton on
      pair build: half/bin/newton
      stencil: half/bin/3d/newton
      bin: standard
Per MPI rank memory allocation (min/avg/max) = 8.63 | 8.63 | 8.63 Mbytes
Step Temp PotEng TotEng Volume E_pair E_bond E_angle 
       0            1   -65.929265   -64.429509        43320   -66.976611   0.93259025   0.11475544 
      10   0.43084898   -64.991903   -64.345734        43320   -66.459998    1.1210877    0.3470072 
      20    0.3469382   -64.827146   -64.306823        43320   -66.440364     1.147123   0.46609557 
      30   0.49795586   -65.100755   -64.353943        43320   -66.570061    1.1171239   0.35218167 
      40   0.54086827   -65.182018   -64.370848        43320   -66.565747    1.1274615   0.25626732 
      50   0.52024501   -65.141376   -64.361135        43320   -66.552715    1.1266914   0.28464827 
      60   0.49837354   -65.097243   -64.349804        43320   -66.538041    1.0913979   0.34940013 
      70   0.47010474   -65.047907   -64.342865        43320   -66.515408    1.1149709    0.3525302 
      80   0.49133885   -65.088173   -64.351285        43320   -66.555098    1.1309336   0.33599198 
      90    0.5205387   -65.139312   -64.358631        43320   -66.555315    1.1027865   0.31321638 
     100   0.50616106   -65.113383   -64.354265        43320   -66.546492    1.1171855   0.31592371 
     110   0.49141725   -65.088362   -64.351356        43320   -66.545077    1.1243182   0.33239646 
     120   0.49360898   -65.092778   -64.352485        43320   -66.519821      1.10428   0.32276322 
     130   0.50508943   -65.109727   -64.352216        43320    -66.53616    1.0970997   0.32933338 
     140   0.49779866   -65.098687    -64.35211        43320   -66.552869    1.1220951   0.33208721 
     150   0.49526867   -65.095843   -64.353061        43320   -66.543125    1.1274385    0.3198428 
     160   0.49774062   -65.099456   -64.352967        43320    -66.56089    1.1395435   0.32188968 
     170   0.50241103   -65.107076   -64.353582        43320   -66.550694     1.119556   0.32406187 
     180   0.49843073    -65.09945   -64.351925        43320   -66.503041    1.0820609   0.32153071 
     190   0.49146827   -65.088207   -64.351124        43320   -66.520282    1.0987619   0.33331385 
     200   0.50252364   -65.107263   -64.353601        43320   -66.549011    1.1200989   0.32164815 
     210   0.50783334    -65.11606   -64.354434        43320   -66.548489    1.1145504   0.31787924 
     220    0.5007229    -65.10405   -64.353088        43320    -66.56556    1.1306878   0.33082174 
     230   0.49886752   -65.099864   -64.351684        43320   -66.551976    1.1314019   0.32071065 
     240   0.49608091   -65.095509   -64.351509        43320   -66.523977    1.1018374   0.32663027 
     250   0.50299863   -65.107339   -64.352964        43320   -66.538147    1.1058221   0.32498564 
     260   0.51268246   -65.122997   -64.354099        43320   -66.540339    1.1044018   0.31294045 
     270   0.50153525   -65.104463   -64.352282        43320   -66.537443    1.1015277   0.33145306 
     280   0.50017878   -65.102859   -64.352713        43320   -66.559532    1.1397082   0.31696425 
     290   0.49865345   -65.099885   -64.352027        43320   -66.552885    1.1244125   0.32858713 
     300   0.50180382   -65.104513    -64.35193        43320    -66.55189     1.117494    0.3298829 
     310   0.50190241   -65.105864   -64.353133        43320   -66.527753    1.1071545   0.31473438 
     320   0.50333694   -65.108524   -64.353641        43320   -66.517069    1.0810267   0.32751831 
     330    0.5102067    -65.11796   -64.352775        43320   -66.536018    1.0958114   0.32224592 
     340   0.51009389   -65.117935   -64.352918        43320   -66.568695     1.126757   0.32400281 
     350   0.50465077    -65.10898   -64.352127        43320   -66.564394    1.1206673   0.33474612 
     360   0.50701363   -65.112597     -64.3522        43320   -66.539624    1.1058302   0.32119667 
     370   0.51171089   -65.121159   -64.353717        43320   -66.551213    1.1060053   0.32404856 
     380   0.50697492   -65.112936   -64.352597        43320   -66.537635    1.1010866   0.32361234 
     390   0.51008572   -65.117048   -64.352044        43320    -66.55478    1.1119079   0.32582422 
     400   0.50511946   -65.109821   -64.352265        43320   -66.573177    1.1365219   0.32683398 
     410   0.50784028   -65.114174   -64.352537        43320   -66.563339    1.1307538   0.31841089 
     420   0.51685881   -65.129331   -64.354169        43320   -66.557712    1.1102128   0.31816873 
     430    0.5107378   -65.118225   -64.352243        43320   -66.540823    1.0932697   0.32932855 
     440   0.50290069   -65.104531   -64.350302        43320   -66.539338    1.1075701   0.32723706 
     450   0.51270616   -65.121958   -64.353024        43320   -66.561561    1.1155193   0.32408343 
     460   0.51288899   -65.122164   -64.352956        43320    -66.58751    1.1429713   0.32237465 
     470   0.52022917   -65.133539   -64.353322        43320    -66.56184    1.1134764   0.31482423 
     480   0.51444115   -65.123858   -64.352322        43320   -66.559904    1.1050592   0.33098696 
     490   0.52093051   -65.133864   -64.352596        43320   -66.552044    1.0952216   0.32295843 
     500   0.51339547   -65.121625   -64.351657        43320    -66.55965    1.1169806   0.32104429 
     510   0.51840109   -65.129838   -64.352363        43320   -66.582148    1.1201717   0.33213845 
     520   0.52179237   -65.136107   -64.353546        43320   -66.554005    1.1099989   0.30789896 
     530   0.52330285   -65.136825   -64.351998        43320   -66.599488    1.1333234   0.32933935 
     540    0.5237738    -65.13896   -64.353427        43320    -66.55766    1.1034272    0.3152728 
     550   0.52142409   -65.135004   -64.352995        43320    -66.53093    1.0839089   0.31201782 
     560   0.52087955   -65.132546   -64.351354        43320   -66.592044    1.1153438   0.34415481 
     570   0.52049296   -65.132635   -64.352023        43320   -66.561722     1.116698   0.31238901 
     580   0.52619356   -65.142761   -64.353599        43320   -66.593698    1.1282821   0.32265503 
     590   0.52362812   -65.138524   -64.353209        43320    -66.60234    1.1379024   0.32591426 
     600   0.52344426   -65.137119   -64.352081        43320   -66.561873     1.113246   0.31150753 
     610   0.52308351   -65.136354   -64.351857        43320   -66.576559    1.0973069   0.34289816 
     620    0.5290835   -65.147662   -64.354166        43320   -66.549976    1.0944148   0.30789958 
     630   0.52116365    -65.13389   -64.352272        43320   -66.557593    1.1074036   0.31629914 
     640   0.51876585   -65.128662    -64.35064        43320   -66.602279    1.1388959   0.33472083 
     650   0.52455858   -65.139982   -64.353273        43320    -66.57333    1.1299657   0.30338159 
     660    0.5328659   -65.153379   -64.354211        43320   -66.595875    1.1147919   0.32770398 
     670   0.52861036   -65.144401   -64.351615        43320    -66.55271    1.0888333   0.31947477 
     680    0.5263424   -65.140614   -64.351229        43320   -66.560942    1.1035093   0.31681888 
     690   0.52792321   -65.144203   -64.352447        43320   -66.594785    1.1227536   0.32782884 
     700   0.52868602   -65.146151   -64.353251        43320   -66.571625    1.1229346   0.30253905 
     710   0.52571745   -65.140246   -64.351798        43320   -66.600335    1.1301715   0.32991744 
     720   0.52682014   -65.141731    -64.35163        43320   -66.571329    1.1106836   0.31891359 
     730   0.52350334   -65.138081   -64.352954        43320   -66.545897    1.0966974   0.31111847 
     740   0.53284944    -65.15258   -64.353436        43320    -66.57323    1.0937696   0.32688044 
     750   0.53237843   -65.151025   -64.352587        43320   -66.575019    1.1140767   0.30991746 
     760   0.52124716   -65.133342   -64.351599        43320   -66.596025    1.1332289   0.32945319 
     770   0.53201329   -65.150323   -64.352433        43320   -66.590884    1.1234636   0.31709791 
     780    0.5269237    -65.14326   -64.353003        43320   -66.569689    1.1166239   0.30980558 
     790    0.5291493   -65.146151   -64.352556        43320   -66.574268    1.1034279   0.32468966 
     800   0.52700855   -65.143138   -64.352754        43320   -66.554682    1.1033294   0.30821442 
     810   0.52976016   -65.146794   -64.352284        43320   -66.592978    1.1246911   0.32149248 
     820   0.52334906   -65.135492   -64.350596        43320   -66.591079     1.128722   0.32686448 
     830   0.52716577   -65.144062   -64.353442        43320    -66.58251    1.1360212   0.30242709 
     840   0.53701188   -65.159205   -64.353819        43320   -66.592481    1.1119109   0.32136425 
     850   0.52634974   -65.141934   -64.352538        43320   -66.533949    1.0823203   0.30969475 
     860   0.51949474   -65.130981   -64.351865        43320    -66.54914    1.1000162   0.31814352 
     870   0.52578865   -65.139568   -64.351013        43320   -66.588576    1.1182371   0.33077136 
     880   0.53318755   -65.152206   -64.352555        43320   -66.598235    1.1331262   0.31290302 
     890   0.52186601   -65.134289   -64.351618        43320    -66.60174    1.1424675   0.32498346 
     900   0.52637761   -65.142417   -64.352979        43320   -66.565222    1.1102434   0.31256159 
     910   0.53472138    -65.15621   -64.354259        43320   -66.559397    1.0925377   0.31064855 
     920   0.52475466   -65.138331   -64.351327        43320   -66.570534    1.1026474   0.32955537 
     930   0.51958228   -65.129911   -64.350664        43320   -66.557325    1.1098696   0.31754499 
     940   0.53256423   -65.150826    -64.35211        43320   -66.594664    1.1232675   0.32056991 
     950   0.52895161   -65.145528   -64.352229        43320   -66.604531    1.1386037   0.32039986 
     960   0.53037368   -65.148976   -64.353545        43320   -66.576798    1.1203678   0.30745443 
     970   0.53330882   -65.152615   -64.352782        43320   -66.587493    1.1105909   0.32428683 
     980    0.5227786   -65.135353   -64.351313        43320    -66.54528    1.0944543   0.31547214 
     990   0.53336611   -65.152797   -64.352878        43320   -66.577905    1.1099092    0.3151986 
    1000   0.52591626   -65.140194   -64.351448        43320    -66.60588    1.1382999   0.32738644 
    1010   0.52203608   -65.135503   -64.352577        43320   -66.568491    1.1258869   0.30710049 
    1020    0.5408049   -65.165371   -64.354296        43320    -66.59433     1.110848   0.31811083 
    1030   0.53219397     -65.1501   -64.351939        43320   -66.562502    1.0949516    0.3174508 
    1040   0.53337909   -65.151293   -64.351355        43320   -66.574107     1.103076   0.31973713 
    1050   0.52430278   -65.138697   -64.352371        43320   -66.577536    1.1132332   0.32560518 
    1060   0.52764203   -65.143959   -64.352625        43320   -66.575051      1.12208   0.30901187 
    1070   0.52365219   -65.137028   -64.351678        43320    -66.60658    1.1473976   0.32215407 
    1080   0.53721519   -65.158702    -64.35301        43320   -66.606537    1.1328368   0.31499886 
    1090   0.53745805   -65.159485   -64.353429        43320   -66.569517    1.1004276   0.30960436 
    1100   0.52636557   -65.140712   -64.351293        43320   -66.559355     1.092469   0.32617381 
    1110   0.52741504   -65.141901   -64.350907        43320   -66.556354    1.0910667   0.32338629 
    1120   0.53043192   -65.148357   -64.352839        43320    -66.58642     1.114526   0.32353633 
    1130   0.53631667    -65.15732   -64.352976        43320   -66.612748     1.143055   0.31237238 
    1140   0.53074687   -65.148566   -64.352575        43320   -66.603886    1.1430896   0.31223026 
    1150   0.52995993   -65.146887   -64.352076        43320   -66.599884    1.1310121   0.32198459 
    1160   0.52884417   -65.144576   -64.351439        43320   -66.566312    1.1043279   0.31740807 
    1170     0.538386   -65.159539   -64.352092        43320   -66.566093    1.0805365   0.32601776 
    1180   0.53299683   -65.152767   -64.353402        43320   -66.575451    1.1124571   0.31022727 
    1190   0.53615943   -65.156983   -64.352875        43320   -66.615381    1.1473268   0.31107106 
    1200   0.53077343   -65.147438   -64.351407        43320   -66.618366    1.1487829   0.32214549 
    1210   0.53803146   -65.159704   -64.352788        43320   -66.593968    1.1200286   0.31423564 
    1220   0.53076251   -65.148442   -64.352428        43320   -66.574191    1.1094193   0.31632974 
    1230    0.5319075   -65.148695   -64.350964        43320   -66.572481    1.0958666   0.32791964 
    1240   0.53300174   -65.152053   -64.352681        43320   -66.586334    1.1190201   0.31526087 
    1250    0.5373036   -65.159315   -64.353491        43320   -66.617802    1.1464012   0.31208582 
    1260   0.53169637   -65.149587   -64.352172        43320   -66.619126     1.147933   0.32160671 
    1270   0.53101452    -65.14808   -64.351688        43320   -66.590229    1.1212036   0.32094527 
    1280   0.52694305   -65.141653   -64.351367        43320    -66.57488     1.111478   0.32174814 
    1290   0.53000105   -65.148423   -64.353551        43320   -66.566719    1.1003926   0.31790365 
    1300   0.53954013    -65.16186   -64.352681        43320   -66.565842    1.0933195     0.310663 
    1310   0.53704616   -65.157346   -64.351908        43320   -66.610807    1.1297047   0.32375664 
    1320   0.53589681   -65.157187   -64.353472        43320   -66.598581    1.1273903   0.31400432 
    1330   0.53514201   -65.155112    -64.35253        43320   -66.597944    1.1293167   0.31351503 
    1340   0.53046208   -65.146594    -64.35103        43320   -66.604382    1.1334685   0.32431915 
    1350   0.52905133   -65.145559   -64.352111        43320    -66.57088    1.1069012   0.31842039 
    1360   0.53761129   -65.160266   -64.353981        43320   -66.579016    1.1049154    0.3138338 
    1370   0.53492549   -65.154678   -64.352421        43320   -66.590391    1.1182045     0.317508 
    1380   0.53155909   -65.148908   -64.351699        43320   -66.588554    1.1212169   0.31842862 
    1390   0.53642646   -65.157244   -64.352735        43320   -66.584839    1.1100427   0.31755219 
    1400   0.53644296   -65.156943   -64.352409        43320   -66.591075    1.1131474   0.32098546 
    1410   0.53141791   -65.149655   -64.352658        43320   -66.591152    1.1245876   0.31690879 
    1420    0.5364593   -65.157492   -64.352934        43320   -66.593115    1.1191506   0.31647206 
    1430   0.53558327   -65.155476   -64.352232        43320      -66.597    1.1317634   0.30976014 
    1440   0.53564618   -65.155296   -64.351958        43320   -66.598552    1.1248032   0.31845229 
    1450    0.5271209   -65.141689   -64.351137        43320   -66.579646    1.1170951   0.32086139 
    1460   0.53499331   -65.155043   -64.352684        43320   -66.582569    1.1151599   0.31236608 
    1470    0.5360015   -65.157576   -64.353705        43320   -66.594987    1.1178002   0.31961099 
    1480   0.52691393   -65.141446   -64.351204        43320   -66.575613    1.1242456   0.30992182 
    1490   0.53278864   -65.150838   -64.351785        43320   -66.608495    1.1371613    0.3204957 
    1500   0.53568133   -65.156577   -64.353186        43320   -66.604888    1.1311488    0.3171617 
    1510    0.5330066   -65.152258   -64.352878        43320   -66.553256    1.0961595   0.30483883 
    1520   0.53831202   -65.158529   -64.351192        43320   -66.586887    1.0987017   0.32965623 
    1530   0.52910058   -65.144461    -64.35094        43320   -66.572341    1.1094965   0.31838301 
    1540   0.53700016   -65.158479    -64.35311        43320   -66.587852    1.1182522   0.31111989 
    1550    0.5406287   -65.165285   -64.354474        43320   -66.631282    1.1584985   0.30749862 
    1560   0.53303719   -65.150982   -64.351556        43320    -66.61004    1.1467202    0.3123382 
    1570   0.52555518   -65.138685    -64.35048        43320   -66.568469     1.104847    0.3249377 
    1580   0.53372715   -65.153684   -64.353223        43320   -66.544274    1.0789411   0.31164897 
    1590   0.53333664   -65.152515    -64.35264        43320   -66.561379    1.0939633    0.3149005 
    1600   0.53186079   -65.149682   -64.352021        43320   -66.602919    1.1394012   0.31383568 
    1610   0.53772447   -65.158998   -64.352542        43320   -66.643881    1.1727801   0.31210317 
    1620   0.52955449   -65.145492    -64.35129        43320   -66.620097    1.1592502   0.31535425 
    1630   0.53297677   -65.151919   -64.352584        43320   -66.564607    1.0985768    0.3141116 
    1640    0.5376765   -65.160006   -64.353623        43320   -66.546056    1.0705126   0.31553709 
    1650    0.5287909   -65.144813   -64.351756        43320   -66.549712    1.0898145   0.31508471 
    1660   0.53219777   -65.149408   -64.351242        43320   -66.603012    1.1332145   0.32038873 
    1670   0.53693161   -65.158167   -64.352901        43320   -66.630263     1.160963   0.31113215 
    1680   0.53414231   -65.154188   -64.353105        43320   -66.606365    1.1435186   0.30865801 
    1690   0.53500727   -65.153377   -64.350997        43320   -66.591313    1.1122866   0.32564977 
    1700    0.5292441   -65.146716   -64.352979        43320   -66.547049    1.0849148   0.31541784 
    1710   0.53095067    -65.14778   -64.351484        43320   -66.559843     1.093061   0.31900151 
    1720   0.53065874   -65.147319   -64.351461        43320   -66.599486    1.1346281   0.31753902 
    1730    0.5428417   -65.167982   -64.353852        43320   -66.620092    1.1480746   0.30403504 
    1740   0.53523844    -65.15472   -64.351993        43320   -66.624421    1.1526268   0.31707446 
    1750   0.53787544   -65.157935   -64.351253        43320     -66.5828    1.1092416   0.31562273 
    1760   0.52659641   -65.141444   -64.351678        43320   -66.546495    1.0841817   0.32086912 
    1770   0.54340034   -65.167857   -64.352889        43320   -66.573011    1.0944007   0.31075334 
    1780   0.53401645   -65.153916   -64.353022        43320    -66.60441    1.1384735   0.31202061 
    1790   0.53435822   -65.153053   -64.351647        43320   -66.618572    1.1488271   0.31669179 
    1800   0.53971315   -65.161805   -64.352367        43320   -66.595733    1.1207557   0.31317296 
    1810   0.53293887   -65.151443   -64.352165        43320   -66.573001    1.0970622   0.32449551 
    1820   0.53173267   -65.149051   -64.351582        43320   -66.542665    1.0793204   0.31429346 
    1830   0.53470053   -65.153593   -64.351673        43320   -66.595898    1.1207345   0.32157051 
    1840   0.53981817   -65.162723   -64.353128        43320   -66.610906    1.1341964   0.31398603 
    1850   0.53753891   -65.158055   -64.351878        43320   -66.626767    1.1532232   0.31548886 
    1860   0.53037543   -65.147399   -64.351965        43320   -66.602071    1.1375089   0.31716262 
    1870   0.53167436     -65.1496   -64.352218        43320   -66.551358    1.0884518   0.31330643 
    1880   0.53014082   -65.145784   -64.350702        43320   -66.572779    1.1018527   0.32514167 
    1890    0.5425542   -65.167174   -64.353475        43320   -66.593809    1.1156378   0.31099754 
    1900   0.53507222   -65.154868   -64.352391        43320    -66.60665    1.1366755   0.31510606 
    1910   0.53733058   -65.156544   -64.350679        43320   -66.642056    1.1635952   0.32191676 
    1920   0.54267161   -65.166714   -64.352839        43320   -66.597036     1.122992   0.30732968 
    1930   0.54015625   -65.162675   -64.352572        43320   -66.580733     1.095091   0.32296784 
    1940   0.52992382   -65.145331   -64.350574        43320   -66.569714    1.1024819   0.32190089 
    1950   0.53908226   -65.160826   -64.352335        43320   -66.617818    1.1370394   0.31995236 
    1960     0.541533   -65.164905   -64.352738        43320   -66.614714    1.1352073   0.31460118 
    1970   0.53444445   -65.153348   -64.351812        43320   -66.586178    1.1279054   0.30492444 
    1980   0.54216075   -65.165833   -64.352724        43320   -66.619531    1.1305741   0.32312362 
    1990   0.53038868    -65.14638   -64.350926        43320   -66.563266    1.0978029   0.31908379 
    2000    0.5355698   -65.154895   -64.351671        43320   -66.571953     1.098569   0.31848862 
    2010   0.53326453   -65.152747    -64.35298        43320   -66.612779    1.1447278   0.31530448 
    2020    0.5440913   -65.168806   -64.352802        43320    -66.61358    1.1399207   0.30485315 
    2030   0.53374362   -65.151028   -64.350543        43320   -66.588515    1.1106634   0.32682297 
    2040   0.54115511   -65.163846   -64.352245        43320   -66.602825    1.1280666   0.31091237 
    2050   0.54050403   -65.163683   -64.353059        43320   -66.580496    1.1061474   0.31066608 
    2060   0.54066371   -65.161658   -64.350794        43320   -66.600919    1.1086868   0.33057453 
    2070   0.54755233   -65.173313   -64.352118        43320   -66.610014     1.127138   0.30956349 
    2080   0.53691695   -65.158723   -64.353478        43320   -66.616122     1.138907   0.31849263 
    2090   0.53645797   -65.155266    -64.35071        43320     -66.5771    1.1070021   0.31483187 
    2100   0.53987719   -65.160821   -64.351137        43320   -66.590949    1.1120054   0.31812211 
    2110   0.54306193   -65.168047   -64.353587        43320   -66.585821    1.0992916   0.31848226 
    2120   0.54077898   -65.163301   -64.352265        43320   -66.592948     1.121242   0.30840477 
    2130   0.54004384   -65.161497   -64.351563        43320   -66.624355    1.1402331   0.32262504 
    2140   0.54247636   -65.165363   -64.351781        43320   -66.626566    1.1443739   0.31682897 
    2150   0.53655469   -65.155423   -64.350722        43320   -66.586035    1.1131768   0.31743547 
    2160   0.54812537   -65.175956   -64.353902        43320   -66.593364    1.0983828    0.3190256 
    2170   0.54564937   -65.171481    -64.35314        43320   -66.593423    1.1168223   0.30511994 
    2180    0.5349854   -65.152783   -64.350435        43320   -66.616961    1.1353111   0.32886724 
    2190   0.53604808    -65.15555   -64.351609        43320   -66.599106    1.1210454   0.32250976 
    2200    0.5444833   -65.168335   -64.351743        43320   -66.595108    1.1126031   0.31416986 
    2210   0.54133298   -65.164138    -64.35227        43320   -66.600859    1.1140375    0.3226839 
    2220   0.53315261   -65.152196   -64.352597        43320   -66.575897    1.1166188   0.30708226 
    2230   0.54334741   -65.167182   -64.352294        43320   -66.609514    1.1292247   0.31310757 
    2240   0.53900288   -65.159352    -64.35098        43320   -66.604641    1.1233426   0.32194616 
    2250   0.54261384     -65.1648   -64.351011        43320   -66.608792    1.1308869   0.31310556 
    2260   0.54246487   -65.165754   -64.352189        43320   -66.616271    1.1334263   0.31709053 
    2270   0.55097049   -65.179576   -64.353255        43320   -66.616211    1.1218072   0.31482775 
    2280   0.54322019   -65.165907   -64.351209        43320   -66.595282    1.1144854    0.3148895 
    2290   0.54740442   -65.172741   -64.351768        43320   -66.613369    1.1220163   0.31861081 
    2300    0.5460333   -65.171207   -64.352291        43320   -66.605161    1.1220319   0.31192191 
    2310   0.54056151   -65.161335   -64.350625        43320   -66.600991    1.1217947   0.31786155 
    2320   0.53989302   -65.160859   -64.351152        43320   -66.597232    1.1147424   0.32163076 
    2330    0.5529043   -65.181828   -64.352607        43320   -66.589624    1.1011652    0.3066307 
    2340   0.54615141   -65.171756   -64.352663        43320   -66.620673    1.1324184   0.31649816 
    2350   0.54441543   -65.168049   -64.351559        43320    -66.62527    1.1454275   0.31179317 
    2360   0.54126081   -65.162583   -64.350824        43320   -66.608363    1.1280291   0.31775142 
    2370   0.54040854   -65.161268   -64.350787        43320   -66.616388    1.1363689    0.3187513 
    2380   0.55270449   -65.182444   -64.353522        43320   -66.611473    1.1163422   0.31268675 
    2390   0.54622674   -65.171158   -64.351952        43320   -66.568306    1.0849742   0.31217375 
    2400   0.53850147   -65.157758   -64.350137        43320   -66.590765    1.1077905   0.32521716 
    2410   0.53794048   -65.158131   -64.351351        43320    -66.60404    1.1323747   0.31353409 
    2420   0.54880666    -65.17629   -64.353214        43320   -66.616039    1.1329174   0.30683074 
    2430   0.54116454   -65.163173   -64.351559        43320   -66.612946    1.1306095   0.31916323 
    2440   0.54361435   -65.166273   -64.350984        43320   -66.598757    1.1182581   0.31422551 
    2450   0.53757754   -65.157517   -64.351282        43320    -66.58713    1.1164597   0.31315346 
    2460   0.55252229   -65.181477   -64.352828        43320   -66.622733    1.1216021   0.31965377 
    2470   0.54796934    -65.17356   -64.351739        43320   -66.621483    1.1379287   0.30999443 
    2480   0.54512092   -65.169194   -64.351646        43320   -66.599899    1.1106369   0.32006763 
    2490   0.55104882   -65.178334   -64.351895        43320   -66.629629     1.133279   0.31801623 
    2500   0.54232811   -65.165082   -64.351722        43320   -66.593246    1.1185765   0.30958703 
    2510   0.54507875   -65.170217   -64.352732        43320    -66.59585    1.1109792    0.3146533 
    2520   0.54170482   -65.163451   -64.351026        43320   -66.596212    1.1187869   0.31397454 
    2530    0.5340285   -65.150945   -64.350033        43320   -66.605343    1.1369886   0.31740865 
    2540   0.54640948    -65.17174   -64.352259        43320    -66.61082    1.1273673   0.31171259 
    2550   0.55048677   -65.178789   -64.353193        43320   -66.613873    1.1292481   0.30583546 
    2560   0.54430075   -65.167678    -64.35136        43320   -66.606566    1.1217017   0.31718674 
    2570   0.54512496   -65.167542   -64.349987        43320   -66.604487    1.1168247   0.32012078 
    2580   0.54073278   -65.162869   -64.351902        43320   -66.596773    1.1214136   0.31249076 
    2590   0.55068736   -65.178845   -64.352948        43320   -66.617878    1.1302275   0.30880554 
    2600   0.54878312   -65.174883   -64.351842        43320   -66.632645    1.1447563   0.31300505 
    2610   0.53704623   -65.156238     -64.3508        43320   -66.622088    1.1445277   0.32132218 
    2620    0.5464041   -65.170602   -64.351129        43320   -66.601387    1.1193909   0.31139496 
    2630   0.54276276   -65.165686   -64.351675        43320   -66.589397    1.1064517   0.31725867 
    2640   0.53635571   -65.156395   -64.351992        43320   -66.587274    1.1204193   0.31045988 
    2650   0.54915839   -65.175681   -64.352078        43320   -66.622024    1.1350963   0.31124577 
    2660   0.54293688   -65.166181   -64.351909        43320   -66.637544     1.151272   0.32009108 
    2670   0.54851041   -65.173425   -64.350793        43320   -66.619332    1.1329606   0.31294626 
    2680   0.55156164   -65.179178    -64.35197        43320   -66.607841    1.1104302   0.31823253 
    2690   0.54609596   -65.171618   -64.352608        43320   -66.587629     1.101723    0.3142878 
    2700   0.54586622    -65.16998   -64.351313        43320   -66.591302    1.1057003     0.315622 
    2710   0.55065824   -65.178524   -64.352671        43320   -66.621673    1.1305191   0.31263075 
    2720   0.54501869   -65.169076   -64.351681        43320   -66.606181    1.1269118   0.31019363 
    2730   0.54634941   -65.170392   -64.351001        43320   -66.637349    1.1470151   0.31994201 
    2740   0.54294813   -65.165907   -64.351617        43320   -66.598667    1.1203585   0.31240106 
    2750   0.54762013   -65.173154   -64.351858        43320   -66.593427    1.1006485   0.31962408 
    2760   0.54570384   -65.169629   -64.351207        43320   -66.598744    1.1144679   0.31464684 
    2770   0.55009424   -65.177956   -64.352949        43320   -66.605205    1.1190637   0.30818586 
    2780   0.55004079   -65.177119   -64.352192        43320   -66.633844    1.1348536   0.32187155 
    2790   0.54333697    -65.16572   -64.350847        43320   -66.619016    1.1430885   0.31020785 
    2800   0.55053232   -65.178104    -64.35244        43320   -66.618091    1.1184714   0.32151499 
    2810   0.54266044   -65.164801   -64.350943        43320   -66.579326    1.0975527   0.31697222 
    2820   0.54521985   -65.168771   -64.351074        43320    -66.59005    1.1084407   0.31283848 
    2830   0.55071343   -65.179147   -64.353211        43320   -66.632608    1.1348239     0.318637 
    2840   0.54339334   -65.166822   -64.351864        43320   -66.611253    1.1344898   0.30994159 
    2850   0.54951054   -65.175388   -64.351256        43320   -66.627273    1.1328064   0.31907887 
    2860   0.54842577   -65.173678   -64.351173        43320   -66.610469    1.1133517   0.32343959 
    2870   0.54755285   -65.172675   -64.351479        43320   -66.592467    1.1095458   0.31024626 
    2880   0.55651694   -65.188224   -64.353584        43320   -66.636467    1.1278714   0.32037125 
    2890   0.55190937   -65.179946   -64.352216        43320   -66.610868    1.1204476   0.31047478 
    2900   0.53940394   -65.159863   -64.350889        43320   -66.606155    1.1296845   0.31660739 
    2910   0.55209166   -65.179776   -64.351773        43320   -66.633929    1.1307833   0.32337015 
    2920   0.54951919   -65.175774    -64.35163        43320   -66.591729    1.1019099    0.3140451 
    2930   0.55014954   -65.178087   -64.352997        43320   -66.606329    1.1115084   0.31673314 
    2940   0.54585204   -65.169973   -64.351328        43320   -66.604798    1.1169835    0.3178418 
    2950   0.54547255   -65.169468   -64.351392        43320   -66.613896    1.1286564   0.31577172 
    2960   0.54583594   -65.169911    -64.35129        43320   -66.634012    1.1435246   0.32057619 
    2970   0.54502706   -65.168822   -64.351415        43320   -66.615675    1.1338408   0.31301128 
    2980   0.55331513   -65.183518    -64.35368        43320   -66.608392    1.1108671   0.31400737 
    2990   0.54323541   -65.166394   -64.351673        43320   -66.596702    1.1085731   0.32173495 
    3000    0.5480318   -65.172479   -64.350565        43320   -66.602344    1.1100783   0.31978681 
    3010   0.54642401    -65.17107   -64.351567        43320   -66.612487    1.1226929   0.31872375 
    3020   0.54460617   -65.169496    -64.35272        43320    -66.61684    1.1342816   0.31306207 
    3030   0.54797439    -65.17365   -64.351822        43320   -66.617539    1.1269362   0.31695275 
    3040   0.54948373   -65.176645   -64.352553        43320   -66.617405     1.123607   0.31715278 
    3050   0.54604096   -65.169476   -64.350548        43320    -66.60921    1.1188224   0.32091108 
    3060   0.54525202   -65.167983   -64.350238        43320   -66.614216    1.1216221   0.32461137 
    3070   0.55062674   -65.179264   -64.353458        43320   -66.618646    1.1248594   0.31452284 
    3080   0.54444617   -65.168953   -64.352417        43320   -66.590733    1.1106347   0.31114586 
    3090   0.55232113   -65.179493   -64.351146        43320   -66.605213    1.1035512   0.32216871 
    3100   0.54662622   -65.172277   -64.352471        43320    -66.61188    1.1273579    0.3122451 
    3110   0.54309628   -65.165832    -64.35132        43320   -66.619216    1.1304412   0.32294292 
    3120   0.54985952   -65.176106   -64.351451        43320   -66.618114    1.1213422   0.32066589 
    3130   0.55096771   -65.178613   -64.352296        43320   -66.636794    1.1468093   0.31137191 
    3140   0.54754743    -65.17317   -64.351982        43320   -66.613181    1.1185054   0.32150578 
    3150   0.54568534   -65.170123   -64.351728        43320   -66.594486    1.1098604   0.31450293 
    3160   0.54266038   -65.165204   -64.351346        43320   -66.621768    1.1350242   0.32153962 
    3170   0.54797589   -65.173505   -64.351675        43320   -66.625966    1.1297039   0.32275693 
    3180   0.54418381   -65.167604   -64.351461        43320   -66.589984    1.1075813   0.31479857 
    3190   0.54098913   -65.163191   -64.351839        43320   -66.596537    1.1107776   0.32256859 
    3200   0.54651611   -65.171747   -64.352106        43320   -66.605339    1.1207822   0.31281016 
    3210   0.54832838   -65.174438   -64.352079        43320   -66.615625    1.1207671   0.32041949 
    3220   0.54557263   -65.169737   -64.351511        43320   -66.613871    1.1247016   0.31943225 
    3230   0.54455883   -65.167478   -64.350773        43320   -66.627268    1.1409319   0.31885829 
    3240   0.55050505   -65.178435   -64.352812        43320   -66.623059    1.1290743    0.3155496 
    3250   0.55206681   -65.180517   -64.352551        43320   -66.610267    1.1175064   0.31224451 
    3260   0.54309368   -65.166011   -64.351503        43320   -66.611804    1.1246468   0.32114666 
    3270   0.54580143   -65.169994   -64.351426        43320   -66.601633    1.1112936   0.32034444 
    3280   0.55258638   -65.180619   -64.351874        43320   -66.607401    1.1077135   0.31906903 
    3290   0.54973974   -65.176466    -64.35199        43320   -66.607963    1.1162266   0.31527092 
    3300   0.54652347   -65.171873   -64.352221        43320   -66.613531     1.125709   0.31594935 
    3310   0.55035549   -65.178029    -64.35263        43320   -66.616582    1.1227242   0.31582873 
    3320    0.5467143   -65.170522   -64.350584        43320   -66.622159    1.1262459   0.32539147 
    3330   0.54464027   -65.168275   -64.351448        43320   -66.636326    1.1485859    0.3194649 
    3340   0.54757325   -65.173522   -64.352296        43320   -66.628906    1.1433533   0.31203067 
    3350    0.5474283   -65.172395   -64.351386        43320   -66.614707    1.1243448   0.31796751 
    3360   0.54273711   -65.165439   -64.351466        43320   -66.589303    1.1035066   0.32035698 
    3370   0.54248037    -65.16455   -64.350962        43320   -66.598338    1.1129379   0.32084968 
    3380   0.54663107   -65.172818   -64.353005        43320   -66.608957    1.1194263   0.31671256 
    3390   0.54542671   -65.170163   -64.352157        43320   -66.624118    1.1382147   0.31573983 
    3400   0.54544979   -65.168662    -64.35062        43320   -66.627543    1.1354675   0.32341433 
    3410   0.54893761   -65.175291   -64.352018        43320   -66.616757    1.1186068   0.32285993 
    3420   0.54254653   -65.165511   -64.351824        43320   -66.593156     1.114134   0.31351003 
    3430   0.54363039   -65.165859   -64.350547        43320   -66.614219    1.1247692    0.3235907 
    3440   0.54735447   -65.173234   -64.352336        43320   -66.618541    1.1251292   0.32017749 
    3450   0.54988904   -65.177581   -64.352882        43320   -66.614708    1.1273565   0.30977071 
    3460   0.54246332   -65.164851   -64.351288        43320   -66.604273    1.1145077   0.32491455 
    3470   0.54417594   -65.167027   -64.350896        43320   -66.604287    1.1110365   0.32622355 
    3480   0.55215283   -65.180826   -64.352731        43320   -66.617808    1.1204663    0.3165154 
    3490   0.54892756   -65.175728   -64.352471        43320   -66.635019    1.1371596   0.32213159 
    3500   0.54198925   -65.163649   -64.350797        43320   -66.615081    1.1325597   0.31887232 
    3510   0.54584827    -65.17094   -64.352301        43320   -66.607612    1.1172597   0.31941262 
    3520   0.53999475    -65.16173   -64.351869        43320   -66.601352     1.122866   0.31675691 
    3530   0.54949522   -65.175287   -64.351178        43320   -66.609159    1.1153154   0.31855694 
    3540   0.55374987   -65.183117   -64.352628        43320   -66.615563     1.112235   0.32021042 
    3550   0.54771953   -65.172685    -64.35124        43320   -66.634588    1.1446966   0.31720625 
    3560   0.54728761   -65.172519   -64.351721        43320   -66.617884    1.1247102   0.32065451 
    3570   0.54880207   -65.175298   -64.352229        43320   -66.611026    1.1197384   0.31598892 
    3580   0.55050912   -65.177501   -64.351872        43320   -66.601716    1.1044328   0.31978239 
    3590   0.54764146   -65.173243   -64.351914        43320   -66.616698    1.1221559   0.32129917 
    3600   0.55378444   -65.182251   -64.351709        43320    -66.61988    1.1178108   0.31981802 
    3610    0.5446295   -65.167927   -64.351116        43320   -66.605527    1.1115352   0.32606515 
    3620   0.55169902   -65.179455   -64.352042        43320    -66.62151    1.1277577    0.3142964 
    3630   0.54611842   -65.171149   -64.352105        43320   -66.633004    1.1458844   0.31597034 
    3640   0.54269329   -65.165323   -64.351416        43320   -66.596448    1.1123622   0.31876266 
    3650   0.54505218   -65.168145   -64.350699        43320   -66.591715    1.1048044   0.31876553 
    3660   0.54875722   -65.174987   -64.351985        43320   -66.636792    1.1399766   0.32182807 
    3670    0.5425307    -65.16619   -64.352526        43320    -66.62555    1.1471526   0.31220779 
    3680   0.54667601   -65.171796   -64.351916        43320    -66.61659    1.1341212    0.3106724 
    3690   0.54653398   -65.170594   -64.350927        43320   -66.619073    1.1213603   0.32711847 
    3700   0.54562454    -65.16994   -64.351636        43320   -66.604965    1.1138321   0.32119296 
    3710   0.54655623   -65.171256   -64.351555        43320   -66.599165     1.110332   0.31757708 
    3720     0.548948   -65.175567   -64.352279        43320   -66.628884    1.1358013   0.31751634 
    3730   0.54720299   -65.172884   -64.352213        43320    -66.62517    1.1374153   0.31487072 
    3740   0.54156141   -65.163089   -64.350879        43320   -66.630503    1.1487624   0.31865185 
    3750   0.54645023   -65.170461   -64.350919        43320   -66.634189    1.1365592   0.32716972 
    3760   0.55369647   -65.182972   -64.352563        43320   -66.602958    1.1064994   0.31348665 
    3770   0.54969208   -65.176627   -64.352223        43320   -66.606494    1.1093851   0.32048264 
    3780   0.54973418   -65.176279   -64.351812        43320   -66.626501     1.129567   0.32065527 
    3790   0.54885209   -65.174907   -64.351763        43320   -66.613311    1.1182396   0.32016357 
    3800   0.55127193   -65.178176   -64.351402        43320   -66.639252    1.1342637    0.3268124 
    3810   0.55437822   -65.183964   -64.352532        43320   -66.622955    1.1250527   0.31393808 
    3820   0.55323959   -65.182322   -64.352598        43320   -66.604377    1.0958734   0.32618224 
    3830   0.55004892   -65.176058   -64.351119        43320   -66.604828    1.1080181    0.3207511 
    3840   0.54613094   -65.169932   -64.350869        43320   -66.621504    1.1289234   0.32264864 
    3850   0.55119992   -65.178446    -64.35178        43320    -66.63666     1.135165   0.32304883 
    3860    0.5543109   -65.183645   -64.352314        43320   -66.642156    1.1448558   0.31365472 
    3870   0.55258367   -65.181185   -64.352444        43320   -66.640843    1.1351544   0.32450392 
    3880   0.54524654   -65.169523   -64.351786        43320    -66.60445    1.1166676     0.318259 
    3890   0.54592488   -65.169871   -64.351117        43320   -66.606309    1.1145057   0.32193145 
    3900   0.54947942   -65.176118   -64.352033        43320   -66.608155    1.1078642   0.32417283 
    3910   0.55381239   -65.183416   -64.352833        43320   -66.623013    1.1269109   0.31268605 
    3920   0.54950529   -65.175574    -64.35145        43320   -66.631043     1.128366   0.32710241 
    3930   0.55894147   -65.189876     -64.3516        43320   -66.646522    1.1312986   0.32534803 
    3940   0.55527206   -65.184822   -64.352049        43320    -66.64265    1.1388389   0.31898999 
    3950   0.55407605    -65.18352   -64.352542        43320   -66.632897    1.1204127   0.32896362 
    3960   0.55959494     -65.1909   -64.351644        43320   -66.608332    1.0963389   0.32109294 
    3970   0.55669478   -65.187061   -64.352155        43320    -66.61453    1.1060327   0.32143644 
    3980   0.55606101   -65.186604   -64.352649        43320   -66.650874    1.1467177   0.31755196 
    3990   0.55394303   -65.181627   -64.350848        43320   -66.629015    1.1307722   0.31661556 
    4000   0.55719933   -65.187433    -64.35177        43320   -66.621466    1.1065282   0.32750506 
    4010   0.56196593   -65.195861    -64.35305        43320   -66.647237     1.133672   0.31770328 
    4020   0.55370285   -65.182394   -64.351975        43320   -66.615822    1.1160537   0.31737456 
    4030   0.55727939   -65.187576   -64.351793        43320   -66.644501    1.1329152   0.32400991 
    4040   0.56106169   -65.192467   -64.351011        43320   -66.651667    1.1420696   0.31713075 
    4050   0.56334709   -65.197423    -64.35254        43320   -66.648316    1.1289298   0.32196307 
    4060   0.55836118   -65.189858   -64.352452        43320   -66.634242    1.1257254   0.31865852 
    4070   0.55881664   -65.190419    -64.35233        43320   -66.599913    1.0973713   0.31212298 
    4080   0.56733266   -65.202877   -64.352017        43320   -66.650638    1.1194352   0.32832586 
    4090   0.56033993   -65.191409   -64.351036        43320   -66.648948    1.1420445   0.31549384 
    4100   0.56612256   -65.201557   -64.352511        43320   -66.649637    1.1243666   0.32371374 
    4110   0.56065739   -65.193994   -64.353145        43320   -66.641704    1.1306962   0.31701334 
    4120   0.56052313   -65.192994   -64.352346        43320   -66.649229    1.1441751   0.31206032 
    4130   0.55929049   -65.189482   -64.350682        43320   -66.617157    1.0919031   0.33577283 
    4140   0.56016184   -65.191907   -64.351801        43320   -66.601664      1.09778   0.31197637 
    4150   0.56108576   -65.194487   -64.352996        43320   -66.678001    1.1648008   0.31871243 
    4160   0.56226497   -65.194591   -64.351331        43320    -66.64939    1.1354294   0.31937022 
    4170   0.55479567   -65.184445   -64.352387        43320   -66.630942    1.1366604   0.30983648 
    4180   0.56227657    -65.19551   -64.352232        43320   -66.643082    1.1230342   0.32453854 
    4190   0.56175849   -65.194931   -64.352431        43320   -66.604799    1.0992956   0.31057236 
    4200   0.55719783    -65.18728   -64.351619        43320    -66.63302    1.1220426   0.32369725 
    4210    0.5591078   -65.190153   -64.351628        43320   -66.644963    1.1288946    0.3259155 
    4220   0.55821961   -65.190009   -64.352816        43320   -66.654928    1.1567688   0.30814996 
    4230   0.55874417   -65.189902   -64.351922        43320   -66.668101     1.156568   0.32163136 
    4240   0.56172339   -65.193935   -64.351487        43320   -66.637992    1.1234988   0.32055808 
    4250   0.56207943   -65.194864   -64.351882        43320   -66.619329     1.107772   0.31669338 
    4260   0.55627037    -65.18654   -64.352271        43320   -66.626831    1.1140077    0.3262831 
    4270   0.56234939   -65.195639   -64.352252        43320   -66.621008    1.1211585   0.30421095 
    4280   0.56674655   -65.202389   -64.352408        43320   -66.663153     1.139113   0.32165055 
    4290   0.55893345   -65.190241   -64.351978        43320   -66.660815    1.1489148   0.32165843 
    4300   0.56102666    -65.19407   -64.352667        43320    -66.64535    1.1384085   0.31287198 
    4310    0.5524802   -65.178793   -64.350208        43320   -66.651158    1.1415894   0.33077507 
    4320   0.56557463    -65.20021   -64.351986        43320   -66.647262    1.1384052   0.30864714 
    4330   0.55607228   -65.187289   -64.353316        43320   -66.625705    1.1232481   0.31516778 
    4340    0.5655929   -65.199965   -64.351714        43320   -66.639396    1.1136385   0.32579264 
    4350   0.56148232    -65.19459   -64.352504        43320   -66.640283    1.1361246   0.30956785 
    4360   0.55986354     -65.1915   -64.351841        43320   -66.645019     1.122063   0.33145637 
    4370   0.55998546   -65.190567   -64.350725        43320   -66.631018    1.1249647   0.31548606 
    4380   0.56017555   -65.191736   -64.351609        43320   -66.660153    1.1458702   0.32254732 
    4390   0.56907449   -65.206895   -64.353422        43320   -66.655812    1.1314367   0.31748101 
    4400   0.56165261   -65.195076   -64.352734        43320   -66.632521    1.1315488   0.30589655 
    4410    0.5570124   -65.186718   -64.351335        43320   -66.660229    1.1401843   0.33332675 
    4420   0.55388482   -65.181475   -64.350783        43320   -66.627791    1.1280458   0.31826935 
    4430   0.56255404   -65.196061   -64.352368        43320   -66.643195    1.1352843   0.31184911 
    4440   0.56137304   -65.194259   -64.352336        43320   -66.648486    1.1333045   0.32092264 
    4450   0.57208834   -65.210843    -64.35285        43320   -66.653551    1.1311024   0.31160596 
    4460   0.55432749   -65.182471   -64.351116        43320   -66.626701    1.1289134   0.31531599 
    4470    0.5706524   -65.208178   -64.352339        43320   -66.646765    1.1217858   0.31680177 
    4480   0.56354953   -65.197173   -64.351986        43320   -66.644524    1.1290158   0.31833545 
    4490   0.55615596    -65.18506   -64.350961        43320   -66.644017    1.1354857   0.32347232 
    4500   0.56937853   -65.206403   -64.352475        43320   -66.656989     1.130676   0.31990954 
    4510    0.5712217   -65.208622   -64.351929        43320   -66.673699     1.151498   0.31357898 
    4520   0.56551349   -65.199469   -64.351336        43320   -66.657644    1.1360217   0.32215328 
    4530   0.57385455    -65.21379   -64.353148        43320   -66.662974    1.1300042   0.31918076 
    4540   0.57446556   -65.213439   -64.351881        43320   -66.648121    1.1174637   0.31721887 
    4550    0.5601442   -65.190842   -64.350763        43320   -66.618734    1.0989683    0.3289229 
    4560   0.56448218   -65.199478   -64.352892        43320   -66.649435    1.1429259    0.3070315 
    4570   0.56676118   -65.202171   -64.352168        43320   -66.697894    1.1726108    0.3231122 
    4580   0.56246989   -65.194528    -64.35096        43320   -66.665843     1.144364    0.3269516 
    4590   0.56825469   -65.204375   -64.352132        43320   -66.639156    1.1263897   0.30839069 
    4600   0.56591604   -65.201335   -64.352599        43320     -66.6527    1.1206823   0.33068304 
    4610   0.56568035   -65.200925   -64.352543        43320   -66.637345    1.1164325   0.31998694 
    4620   0.56944851   -65.204917   -64.350883        43320   -66.649598    1.1231064   0.32157524 
    4630   0.56836834   -65.204774    -64.35236        43320   -66.671022    1.1412553   0.32499271 
    4640   0.57376236   -65.213938   -64.353434        43320   -66.683094    1.1628609   0.30629571 
    4650   0.57054123   -65.207557   -64.351885        43320   -66.663693    1.1326099   0.32352583 
    4660   0.56419827   -65.196264   -64.350104        43320   -66.646646     1.121477    0.3289051 
    4670   0.56783957   -65.203892   -64.352271        43320   -66.630204     1.108412   0.31790068 
    4680   0.56911214   -65.206509    -64.35298        43320   -66.663464    1.1314416   0.32551347 
    4690   0.57159051   -65.209842   -64.352596        43320   -66.666662    1.1459027    0.3109174 
    4700   0.56853793    -65.20439   -64.351722        43320   -66.661593     1.136031   0.32117197 
    4710   0.56100926   -65.192856   -64.351479        43320   -66.680255     1.159322   0.32807705 
    4720   0.56553873   -65.200145   -64.351975        43320   -66.664023    1.1521137   0.31176406 
    4730   0.56666868    -65.20193   -64.352065        43320   -66.652761    1.1244761   0.32635535 
    4740   0.57391196   -65.213553   -64.352825        43320   -66.643216    1.1123449   0.31731882 
    4750   0.56719943   -65.202205   -64.351544        43320    -66.66972    1.1416156   0.32589956 
    4760   0.56663856   -65.201505   -64.351686        43320   -66.668259    1.1348037   0.33194967 
    4770   0.57145651   -65.210008   -64.352963        43320    -66.64635     1.128306   0.30803605 
    4780   0.57047964   -65.207993   -64.352413        43320   -66.676418    1.1409293   0.32749571 
    4790   0.56441573   -65.197666    -64.35118        43320   -66.663913    1.1438489   0.32239793 
    4800   0.56306857    -65.19679   -64.352324        43320    -66.65735    1.1498944   0.31066565 
    4810   0.56539817   -65.199834   -64.351875        43320   -66.682106    1.1522093   0.33006268 
    4820   0.56220102   -65.193713   -64.350549        43320    -66.63241    1.1262352   0.31246224 
    4830   0.57317579   -65.213242   -64.353619        43320   -66.673664    1.1363019   0.32411972 
    4840   0.57509998   -65.215525   -64.353015        43320   -66.653689    1.1141897   0.32397442 
    4850   0.56389671   -65.197027    -64.35132        43320   -66.615934    1.1055688   0.31333841 
    4860   0.56577126   -65.200151   -64.351632        43320   -66.678457    1.1409546   0.33735153 
    4870   0.56503469   -65.198801   -64.351386        43320   -66.652616      1.13901   0.31480593 
    4880   0.56775563   -65.205191   -64.353697        43320   -66.668327    1.1470851   0.31605037 
    4890   0.57172489   -65.210153   -64.352705        43320   -66.692686    1.1542814   0.32825262 
    4900   0.56089969    -65.19159   -64.350377        43320   -66.658041    1.1485675   0.31788408 
    4910   0.56660855   -65.201394   -64.351619        43320    -66.66815    1.1317492   0.33500697 
    4920   0.57597567   -65.216307   -64.352484        43320   -66.653203    1.1226883   0.31420781 
    4930   0.56950556   -65.206623   -64.352504        43320   -66.643747    1.1206908   0.31643241 
    4940    0.5709703   -65.208295   -64.351979        43320   -66.676554    1.1367336   0.33152476 
    4950   0.56129529   -65.193562   -64.351756        43320    -66.65795    1.1470334   0.31735518 
    4960   0.57421452   -65.213706   -64.352525        43320   -66.670371     1.127655   0.32900956 
    4970   0.56604718   -65.199897   -64.350964        43320   -66.662292    1.1397573   0.32263768 
    4980   0.56782668   -65.204367   -64.352766        43320   -66.678887    1.1571514   0.31736873 
    4990   0.56969075   -65.206822   -64.352425        43320   -66.666551    1.1289852   0.33074364 
    5000   0.56720261   -65.202044   -64.351379        43320   -66.652022    1.1304069   0.31957064 
    5010   0.57511862    -65.21679   -64.354252        43320   -66.658606    1.1262756   0.31554041 
    5020   0.57333555    -65.21178   -64.351917        43320   -66.672458    1.1361526   0.32452539 
    5030   0.56847749   -65.203726   -64.351148        43320   -66.651927    1.1278129   0.32038827 
    5040   0.56949909   -65.206768   -64.352659        43320   -66.662981    1.1351259   0.32108731 
    5050   0.56397843   -65.197661   -64.351831        43320   -66.670383    1.1487287   0.32399347 
    5060   0.57152254   -65.210079   -64.352935        43320   -66.663733    1.1364448   0.31720905 
    5070   0.56911187   -65.205661   -64.352133        43320   -66.665583     1.132628     0.327294 
    5080    0.5710394   -65.208004   -64.351585        43320   -66.657614     1.125208   0.32440181 
    5090   0.56741632   -65.202732   -64.351746        43320   -66.631865    1.1100991   0.31903378 
    5100   0.56894575   -65.205827   -64.352547        43320   -66.670568    1.1320953   0.33264645 
    5110   0.56666568   -65.202634   -64.352774        43320   -66.665561    1.1496588   0.31326818 
    5120   0.56910107   -65.204939   -64.351426        43320   -66.668897    1.1404381   0.32352052 
    5130   0.56351172   -65.196636   -64.351506        43320   -66.696733    1.1662032   0.33389476 
    5140   0.56716998   -65.204296    -64.35368        43320   -66.651351     1.135353   0.31170201 
    5150   0.56846571   -65.204956   -64.352397        43320   -66.651223    1.1170572   0.32920967 
    5160   0.56800188   -65.203435   -64.351571        43320    -66.64945    1.1229012   0.32311323 
    5170   0.56301885   -65.194982   -64.350591        43320   -66.648259    1.1300649   0.32321225 
    5180   0.57046736   -65.207681    -64.35212        43320   -66.702113    1.1583132   0.33611804 
    5190   0.56739065   -65.205235   -64.354287        43320    -66.65498    1.1447711   0.30497415 
    5200    0.5701807     -65.2074   -64.352268        43320   -66.682706     1.142428   0.33287809 
    5210   0.56819507   -65.203245   -64.351091        43320   -66.657616    1.1251811   0.32918935 
    5220   0.56947829   -65.205784   -64.351706        43320    -66.65392    1.1248695    0.3232663 
    5230   0.56630335   -65.201792   -64.352475        43320   -66.665517    1.1270387    0.3366865 
    5240    0.5660493   -65.202516   -64.353581        43320   -66.653397    1.1415437   0.30933734 
    5250    0.5672234   -65.203106   -64.352409        43320   -66.686204    1.1548474    0.3282507 
    5260   0.57024097   -65.206618   -64.351396        43320   -66.670833    1.1320042   0.33221125 
    5270   0.56508997   -65.199446   -64.351949        43320   -66.644959    1.1232767   0.32223656 
    5280   0.56784922   -65.203812   -64.352176        43320   -66.656948    1.1173203   0.33581617 
    5290   0.56784302   -65.204096    -64.35247        43320   -66.655527    1.1370161   0.31441404 
    5300   0.57066701   -65.208363   -64.352502        43320   -66.679893    1.1465106   0.32501848 
    5310   0.56553736   -65.198925   -64.350757        43320   -66.673619    1.1374566   0.33723747 
    5320   0.57521571   -65.214827   -64.352144        43320   -66.651609    1.1231752   0.31360725 
    5330    0.5699087    -65.20856   -64.353836        43320   -66.664436    1.1239458   0.33193047 
    5340   0.57190813   -65.210376   -64.352654        43320   -66.659019    1.1219828   0.32665994 
    5350   0.57356436   -65.211132   -64.350925        43320   -66.683068    1.1447002   0.32723608 
    5360   0.55952833   -65.190519   -64.351364        43320   -66.683217     1.157869   0.33482852 
    5370   0.57393659    -65.21486   -64.354095        43320   -66.659866    1.1318974   0.31310847 
    5380   0.56954142   -65.206927   -64.352754        43320   -66.675655    1.1395286   0.32919857 
    5390   0.56526474   -65.198766   -64.351007        43320   -66.643437     1.114596   0.33007473 
    5400   0.57194651   -65.209297   -64.351517        43320   -66.654933    1.1198721   0.32576349 
    5410   0.57108162   -65.208913    -64.35243        43320   -66.690069     1.149625   0.33153139 
    5420   0.57642165    -65.21825   -64.353758        43320   -66.681974    1.1474982   0.31622665 
    5430   0.57023785   -65.206844   -64.351627        43320   -66.676791    1.1342195   0.33572706 
    5440   0.57197126   -65.209876   -64.352059        43320   -66.665119    1.1227567   0.33248603 
    5450   0.57036238    -65.20754   -64.352135        43320   -66.625574    1.0964408   0.32159337 
    5460   0.57267651   -65.210956   -64.352081        43320   -66.663567    1.1202244   0.33238644 
    5470   0.56721598   -65.202815   -64.352129        43320   -66.669498    1.1398408   0.32684246 
    5480   0.57140569   -65.210185   -64.353216        43320   -66.689268     1.154156   0.32492669 
    5490   0.57526861   -65.214796   -64.352033        43320   -66.688649    1.1405109   0.33334278 
    5500   0.56995738   -65.205796   -64.350999        43320   -66.645315    1.1138858   0.32563285 
    5510   0.57408673   -65.214301   -64.353311        43320   -66.659228    1.1152862   0.32964022 
    5520   0.56429626   -65.198523   -64.352217        43320   -66.647801    1.1244449   0.32483276 
    5530   0.57330044   -65.212709   -64.352899        43320   -66.678652    1.1443457   0.32159646 
    5540   0.57300389   -65.211395    -64.35203        43320   -66.712573    1.1676291   0.33354858 
    5550   0.56574143   -65.199617   -64.351143        43320   -66.659871    1.1313603   0.32889415 
    5560   0.56697535   -65.203437   -64.353113        43320   -66.635931    1.1037388   0.32875476 
    5570   0.56547216   -65.201053   -64.352983        43320   -66.659203    1.1351403   0.32300956 
    5580   0.57129656   -65.208195    -64.35139        43320   -66.680384    1.1439822   0.32820658 
    5590    0.5743429   -65.214038   -64.352664        43320   -66.689495    1.1443034   0.33115362 
    5600    0.5726432    -65.21129   -64.352465        43320   -66.684584    1.1501412    0.3231533 
    5610    0.5671735   -65.203398   -64.352777        43320   -66.656729    1.1285228   0.32480801 
    5620   0.57627198   -65.217005   -64.352738        43320   -66.669696    1.1157799   0.33691115 
    5630   0.56357552    -65.19665   -64.351424        43320   -66.660949    1.1371869   0.32711229 
    5640   0.57695388   -65.218704   -64.353414        43320   -66.678238    1.1322366   0.32729705 
    5650   0.57278544   -65.212038      -64.353        43320   -66.678873    1.1427051   0.32412926 
    5660   0.57150812   -65.208862   -64.351739        43320   -66.683196    1.1522413   0.32209221 
    5670    0.5736011   -65.213526   -64.353264        43320   -66.689396     1.138244   0.33762588 
    5680   0.57396414    -65.21378   -64.352974        43320   -66.644852    1.1033936   0.32767867 
    5690   0.56908154   -65.204388   -64.350904        43320   -66.657471    1.1229718    0.3301109 
    5700   0.57097404   -65.209792   -64.353471        43320   -66.686049    1.1456896   0.33056664 
    5710   0.57084411   -65.208365   -64.352238        43320   -66.685335    1.1539022   0.32306773 
    5720   0.57337304   -65.212557   -64.352638        43320   -66.689365    1.1451392   0.33166838 
    5730   0.57388071   -65.213572   -64.352891        43320     -66.6773    1.1289145   0.33481413 
    5740    0.5762074    -65.21701    -64.35284        43320   -66.668549    1.1276762    0.3238624 
    5750   0.57150965   -65.209103   -64.351978        43320   -66.687463    1.1455348   0.33282551 
    5760   0.56487085   -65.197295   -64.350127        43320   -66.661172    1.1322508   0.33162547 
    5770   0.57671378   -65.218756   -64.353826        43320    -66.68271    1.1415323   0.32242152 
    5780   0.57550704   -65.217418   -64.354298        43320   -66.683801    1.1461815   0.32020141 
    5790   0.56700255   -65.201675   -64.351309        43320   -66.654146    1.1261852   0.32628567 
    5800   0.56815574   -65.202651   -64.350557        43320   -66.684727    1.1425454   0.33952999 
    5810   0.57201163   -65.209892   -64.352014        43320   -66.672123    1.1314234   0.33080723 
    5820   0.57132807   -65.210211   -64.353358        43320   -66.679975    1.1535846   0.31617962 
    5830    0.5760837    -65.21767   -64.353685        43320   -66.677599    1.1318733   0.32805566 
    5840   0.56985927   -65.205649   -64.350999        43320   -66.671216     1.140376   0.32519129 
    5850    0.5679243   -65.203554   -64.351806        43320   -66.668741    1.1340389   0.33114843 
    5860   0.57533214   -65.215241   -64.352383        43320   -66.671758    1.1252768   0.33124052 
    5870   0.58260053   -65.226582   -64.352824        43320   -66.660213    1.1162309   0.31739927 
    5880    0.5711123   -65.208776   -64.352247        43320   -66.671478    1.1312868   0.33141553 
    5890   0.57071957   -65.207948   -64.352008        43320   -66.671795    1.1373385   0.32650813 
    5900   0.56805521   -65.204205   -64.352261        43320   -66.679916    1.1555065   0.32020442 
    5910   0.56824054   -65.203511   -64.351289        43320   -66.691885    1.1569235    0.3314505 
    5920   0.57591194   -65.217203   -64.353476        43320   -66.648485    1.1120514   0.31922999 
    5930   0.57142101   -65.209239   -64.352247        43320    -66.66761    1.1255289   0.33284235 
    5940   0.56935011   -65.205033   -64.351147        43320   -66.645664    1.1120666    0.3285647 
    5950   0.57516445   -65.215469   -64.352863        43320   -66.678239    1.1416811   0.32108907 
    5960   0.57231542   -65.210193    -64.35186        43320   -66.699113      1.16002   0.32890015 
    5970   0.57388923   -65.214423   -64.353729        43320   -66.669769    1.1405889   0.31475687 
    5980   0.57919683   -65.220393   -64.351739        43320   -66.671389     1.120232   0.33076446 
    5990   0.57621478   -65.214902    -64.35072        43320   -66.668962    1.1204462   0.33361412 
    6000   0.57277173   -65.213257   -64.354239        43320   -66.664449    1.1330541   0.31813809 
    6010   0.57652973   -65.217475   -64.352821        43320   -66.693614     1.146804   0.32933522 
    6020   0.57289525   -65.211285   -64.352082        43320   -66.688169    1.1469887   0.32989532 
    6030   0.56904273   -65.204383   -64.350958        43320   -66.697906    1.1635244   0.32999929 
    6040   0.57240376   -65.210539   -64.352073        43320   -66.665187     1.129616   0.32503166 
    6050   0.57740193   -65.219885   -64.353923        43320   -66.649227    1.1019125   0.32742989 
    6060   0.57258466   -65.210942   -64.352205        43320   -66.668107    1.1270836    0.3300807 
    6070   0.56758992   -65.202994   -64.351747        43320   -66.673199    1.1430097   0.32719578 
    6080   0.56655618   -65.202074   -64.352378        43320    -66.67479    1.1422353   0.33048153 
    6090   0.57879994   -65.220506   -64.352447        43320   -66.698831    1.1540199   0.32430524 
    6100   0.56694695   -65.202744   -64.352462        43320   -66.677794    1.1446966   0.33035366 
    6110   0.57318303    -65.21218   -64.352545        43320   -66.663804    1.1293576   0.32226621 
    6120   0.56831174   -65.204171   -64.351842        43320   -66.664142    1.1285399   0.33143079 
    6130   0.57867785   -65.220619   -64.352744        43320   -66.671405    1.1210952   0.32969045 
    6140   0.56904628   -65.205756   -64.352325        43320   -66.654943    1.1230548   0.32613219 
    6150    0.5743142   -65.214321    -64.35299        43320   -66.664823    1.1238169    0.3266856 
    6160   0.57295752    -65.21129   -64.351994        43320   -66.664696    1.1257585   0.32764752 
    6170   0.57016218   -65.206872   -64.351768        43320    -66.69441    1.1517981   0.33573963 
    6180   0.57416032   -65.212755   -64.351654        43320   -66.697119    1.1524427   0.33192182 
    6190    0.5682196   -65.204428   -64.352237        43320   -66.671818    1.1403823   0.32700798 
    6200   0.57851086   -65.221759   -64.354134        43320   -66.689197     1.138097   0.32934108 
    6210   0.57798375   -65.219931   -64.353097        43320   -66.667749    1.1255712   0.32224632 
    6220   0.56461817   -65.197718   -64.350928        43320   -66.666286     1.132392   0.33617656 
    6230   0.56946741   -65.205489   -64.351427        43320   -66.682977    1.1431848   0.33430331 
    6240   0.56885085   -65.205635   -64.352498        43320   -66.670565    1.1487771   0.31615283 
    6250   0.57177034   -65.210606   -64.353091        43320   -66.690011    1.1456465   0.33375784 
    6260   0.57731312   -65.217717   -64.351888        43320   -66.657505    1.1127844    0.3270038 
    6270   0.56742496   -65.202637   -64.351639        43320    -66.66653    1.1293286   0.33456421 
    6280    0.5737693   -65.213731   -64.353217        43320   -66.684807    1.1392807    0.3317953 
    6290   0.56761262   -65.202482   -64.351201        43320   -66.677393    1.1484846   0.32642652 
    6300   0.57682139   -65.217895   -64.352804        43320   -66.697048    1.1477895    0.3313628 
    6310   0.57426509   -65.213543   -64.352286        43320   -66.674177    1.1304169   0.33021722 
    6320   0.56780231   -65.201955    -64.35039        43320   -66.652379    1.1221401   0.32828374 
    6330   0.57430661   -65.214885   -64.353565        43320    -66.65184    1.1102831   0.32667208 
    6340   0.57445128   -65.214326    -64.35279        43320   -66.670664    1.1376447   0.31869312 
    6350    0.5615501   -65.193362   -64.351174        43320   -66.679478    1.1533261   0.33278924 
    6360   0.57032357    -65.20601   -64.350664        43320    -66.69377    1.1582637   0.32949677 
    6370   0.57924497   -65.221391   -64.352665        43320   -66.692543    1.1473133   0.32383909 
    6380    0.5829524   -65.229385   -64.355099        43320   -66.673006     1.123527   0.32009374 
    6390   0.57701247   -65.216387   -64.351009        43320   -66.684023    1.1346436    0.3329923 
    6400   0.57167689   -65.208068   -64.350692        43320   -66.680021    1.1367116   0.33524207 
    6410   0.57232659   -65.211389   -64.353038        43320   -66.682052    1.1477827   0.32288065 
    6420   0.56781367   -65.203985   -64.352403        43320   -66.649762    1.1210542   0.32472332 
    6430   0.57658929   -65.217948   -64.353205        43320   -66.655534    1.1134353   0.32415103 
    6440    0.5695034   -65.205522   -64.351406        43320   -66.674699    1.1380095   0.33116726 
    6450   0.57165636   -65.208124   -64.350779        43320   -66.691164    1.1501876   0.33285251 
    6460   0.56465617   -65.199803   -64.352956        43320    -66.68246     1.162056   0.32060186 
    6470   0.57940274   -65.222369   -64.353406        43320   -66.711039    1.1671488   0.32152143 
    6480   0.57179572   -65.209336   -64.351782        43320   -66.649964    1.1110744    0.3295543 
    6490    0.5628982   -65.194246   -64.350036        43320   -66.649262    1.1194948   0.33552092 
    6500   0.57345253   -65.212171   -64.352132        43320   -66.665472    1.1325134   0.32078757 
    6510   0.57610622   -65.217502   -64.353483        43320   -66.657672    1.1223671    0.3178026 
    6520   0.56891056   -65.205534   -64.352307        43320   -66.674432     1.138416   0.33048223 
    6530   0.56857264   -65.202728   -64.350008        43320   -66.694825     1.160136   0.33196093 
    6540   0.57637366   -65.217001   -64.352581        43320   -66.681327    1.1351147    0.3292111 
    6550   0.57884937   -65.222154   -64.354021        43320   -66.657527    1.1148675   0.32050498 
    6560   0.57242802   -65.209863   -64.351361        43320   -66.679743    1.1405119   0.32936766 
    6570   0.57116185   -65.207622   -64.351019        43320   -66.686428      1.14563   0.33317583 
    6580   0.57457552   -65.214792   -64.353069        43320   -66.677106    1.1421051   0.32020822 
    6590    0.5692657   -65.206355   -64.352596        43320   -66.683569    1.1521604   0.32505378 
    6600   0.57534613   -65.214334   -64.351455        43320   -66.667225    1.1233117   0.32957957 
    6610   0.57155186   -65.209198   -64.352009        43320   -66.657027    1.1164087   0.33142063 
    6620   0.58097051    -65.22408   -64.352766        43320   -66.676678    1.1253399   0.32725847 
    6630   0.57862767   -65.220479   -64.352679        43320   -66.696258    1.1509055   0.32487397 
    6640   0.56749712   -65.202543   -64.351436        43320   -66.698884    1.1729352   0.32340602 
    6650   0.57884383   -65.220188   -64.352064        43320   -66.684165    1.1373152   0.32666195 
    6660   0.57591256   -65.215921   -64.352193        43320   -66.661854    1.1150363   0.33089671 
    6670   0.57221692   -65.209526    -64.35134        43320   -66.664982    1.1217405   0.33371593 
    6680    0.5704283   -65.208321   -64.352818        43320     -66.6455    1.1152913   0.32188789 
    6690   0.56947197   -65.205211   -64.351142        43320   -66.678957      1.14841   0.32533647 
    6700   0.57228961   -65.210967   -64.352672        43320   -66.687345    1.1539885   0.32238945 
    6710   0.57228686   -65.211336   -64.353046        43320    -66.69848    1.1610335   0.32611034 
    6720   0.56979507   -65.204555   -64.350002        43320   -66.685994    1.1535041   0.32793472 
    6730   0.57131292   -65.208995   -64.352165        43320   -66.669151    1.1283939   0.33176265 
    6740   0.57823592   -65.220323    -64.35311        43320   -66.678159    1.1360296   0.32180727 
    6750   0.56637539   -65.200107   -64.350682        43320   -66.687088    1.1565657   0.33041486 
    6760   0.57367886   -65.212913   -64.352535        43320   -66.680609    1.1380339   0.32966242 
    6770   0.57581125   -65.215359   -64.351783        43320   -66.672974    1.1381961    0.3194192 
    6780   0.57361168   -65.211952   -64.351675        43320   -66.659885    1.1178801   0.33005335 
    6790   0.57654159   -65.216627   -64.351955        43320    -66.64386    1.1042264   0.32300708 
    6800   0.57287043   -65.211245   -64.352079        43320   -66.672202    1.1337967   0.32716021 
    6810   0.57039979   -65.208266   -64.352805        43320    -66.70128    1.1693029    0.3237115 
    6820   0.57300251   -65.210393   -64.351029        43320   -66.692511    1.1607713   0.32134735 
    6830   0.57626935   -65.215143   -64.350879        43320   -66.699866    1.1484388    0.3362848 
    6840    0.5731767     -65.2121   -64.352475        43320   -66.660629    1.1281655   0.32036329 
    6850   0.57671274    -65.21792   -64.352992        43320   -66.648985    1.1051628   0.32590198 
    6860   0.56918013   -65.204758   -64.351127        43320   -66.676411    1.1407753   0.33087702 
    6870   0.57502207   -65.213038   -64.350646        43320   -66.674976    1.1410449   0.32089324 
    6880   0.57378321   -65.213404    -64.35287        43320   -66.695339    1.1502591   0.33167609 
    6890   0.57288685   -65.212153   -64.352962        43320   -66.664376    1.1339128   0.31831065 
    6900   0.57195321   -65.209767   -64.351977        43320   -66.649458    1.1127013   0.32698985 
    6910   0.57470166   -65.213385   -64.351473        43320   -66.666763    1.1220797   0.33129793 
    6920   0.57400357   -65.212344   -64.351479        43320   -66.673672    1.1409383   0.32038927 
    6930   0.57410657   -65.213364   -64.352344        43320   -66.706695     1.164523   0.32880855 
    6940   0.57056773   -65.207641   -64.351929        43320    -66.69803    1.1719929    0.3183957 
    6950   0.57813605   -65.219786   -64.352723        43320   -66.686299    1.1405858   0.32592725 
    6960   0.57230075   -65.210168   -64.351856        43320   -66.652854    1.1126225   0.33006351 
    6970   0.57052006   -65.206749   -64.351108        43320   -66.646029    1.1146472   0.32463299 
    6980   0.57665016   -65.216609   -64.351775        43320   -66.662951     1.114022   0.33231989 
    6990   0.57709561   -65.218911   -64.353408        43320   -66.668234    1.1320166    0.3173065 
    7000   0.56450305   -65.197917     -64.3513        43320   -66.681594    1.1540631   0.32961372 
    7010   0.57160317   -65.208311   -64.351046        43320   -66.685259    1.1430287   0.33391928 
    7020   0.57577515   -65.216521   -64.352998        43320   -66.669559    1.1317444    0.3212943 
    7030   0.57315518   -65.212017   -64.352424        43320    -66.69883    1.1587676   0.32804499 
    7040   0.56732174   -65.202128   -64.351284        43320   -66.684109    1.1519925   0.32998845 
    7050   0.57214815   -65.209241   -64.351159        43320   -66.677284    1.1402297   0.32781291 
    7060   0.56960531   -65.206361   -64.352092        43320   -66.662111    1.1319224    0.3238278 
    7070    0.5787631   -65.221287   -64.353284        43320    -66.64783    1.1030254   0.32351763 
    7080   0.57489581   -65.214603   -64.352399        43320   -66.639935    1.0999496   0.32538266 
    7090   0.56126784   -65.191706   -64.349941        43320   -66.675686     1.147896   0.33608397 
    7100   0.57167237    -65.20933   -64.351961        43320   -66.695221    1.1573072   0.32858321 
    7110    0.5756821   -65.216899   -64.353517        43320   -66.696107    1.1626801   0.31652736 
    7120   0.57694404   -65.217355   -64.352079        43320   -66.693926    1.1492793   0.32729239 
    7130   0.56773318    -65.20233   -64.350869        43320   -66.658431    1.1254045    0.3306962 
    7140   0.56629077   -65.201288    -64.35199        43320   -66.645787    1.1173485   0.32715043 
    7150   0.57003125   -65.206104   -64.351196        43320   -66.673742    1.1401737   0.32746528 
    7160   0.58203084   -65.226275   -64.353371        43320    -66.68217    1.1374429   0.31845283 
    7170   0.57262458     -65.2117   -64.352903        43320   -66.674566    1.1354141   0.32745154 
    7180    0.5648516   -65.196896   -64.349757        43320   -66.670416    1.1436823   0.32983709 
    7190   0.56742786   -65.203082   -64.352079        43320   -66.658039    1.1293811   0.32557549 
    7200   0.57402639   -65.213569   -64.352669        43320   -66.676069    1.1359202   0.32658042 
    7210   0.57804141   -65.219808   -64.352887        43320   -66.682013    1.1397266    0.3224776 
    7220   0.57968447   -65.221872   -64.352487        43320   -66.690978    1.1434351   0.32567139 
    7230   0.56784526    -65.20278    -64.35115        43320   -66.661807    1.1331109   0.32591693 
    7240   0.57266244   -65.210656   -64.351803        43320   -66.648286    1.1089558    0.3286736 
    7250   0.56688933    -65.20101   -64.350815        43320   -66.654969    1.1194432   0.33451574 
    7260   0.56923075   -65.206257   -64.352549        43320   -66.661277    1.1357897   0.31923049 
    7270   0.57636966   -65.218337   -64.353924        43320   -66.683647    1.1417416   0.32356767 
    7280   0.57313782   -65.211122   -64.351555        43320   -66.688715    1.1537531   0.32384068 
    7290   0.56981853   -65.204916   -64.350327        43320   -66.693459      1.15827    0.3302729 
    7300   0.57185749   -65.209163   -64.351517        43320   -66.667978    1.1299173   0.32889736 
    7310   0.57817797   -65.220096    -64.35297        43320   -66.654121    1.1113303   0.32269532 
    7320    0.5734801   -65.213254   -64.353174        43320   -66.651721    1.1110504   0.32741667 
    7330   0.57665541   -65.217296   -64.352453        43320   -66.662473    1.1246816   0.32049563 
    7340   0.57024148    -65.20614   -64.350917        43320   -66.695792    1.1524528   0.33719945 
    7350   0.56955204   -65.205059    -64.35087        43320   -66.685596    1.1470414   0.33349571 
    7360   0.58058149   -65.222791    -64.35206        43320    -66.67713    1.1300748   0.32426436 
    7370   0.57681819   -65.219305   -64.354218        43320   -66.669095    1.1228143    0.3269766 
    7380   0.57633171   -65.216933   -64.352576        43320   -66.651937    1.1145204   0.32048362 
    7390   0.57044711   -65.205369   -64.349838        43320   -66.657015    1.1179674   0.33367887 
    7400   0.56818364   -65.202859   -64.350722        43320   -66.695067    1.1542016   0.33800638 
    7410   0.57928875   -65.221555   -64.352763        43320   -66.689952    1.1489867   0.31941061 
    7420   0.57880691   -65.222859    -64.35479        43320   -66.700438    1.1552281   0.32235054 
    7430   0.57080643   -65.207276   -64.351206        43320   -66.665378    1.1243246   0.33377693 
    7440   0.57236657   -65.208292   -64.349882        43320   -66.667073    1.1287546   0.33002617 
    7450   0.58188401   -65.225627   -64.352943        43320    -66.68871     1.137162    0.3259206 
    7460   0.57279478   -65.211596   -64.352544        43320   -66.671099    1.1357995   0.32370319 
[...]
   98150   0.61221933    -65.25368     -64.3355        43320   -66.743981    1.1439866   0.34631418 
   98160   0.60620282   -65.246093   -64.336936        43320   -66.749573    1.1638752   0.33960525 
   98170   0.61012441   -65.251721   -64.336684        43320   -66.772508    1.1776941   0.34309225 
   98180   0.61600125   -65.259336   -64.335485        43320   -66.756455    1.1574265   0.33969217 
   98190   0.61667491   -65.261843   -64.336981        43320   -66.760967    1.1513402   0.34778398 
   98200   0.61171471   -65.255132   -64.337709        43320   -66.712712    1.1205635   0.33701659 
   98210   0.60861528   -65.248527   -64.335753        43320   -66.709595    1.1176161   0.34345194 
   98220   0.60501312   -65.243137   -64.335765        43320   -66.760776    1.1689589    0.3486798 
   98230   0.61156125   -65.253689   -64.336496        43320   -66.767968    1.1748146   0.33946433 
   98240   0.61260105   -65.255947   -64.337195        43320   -66.751912    1.1527924   0.34317338 
   98250   0.61587012   -65.260522   -64.336867        43320   -66.744249    1.1369798   0.34674682 
   98260     0.614128   -65.257191   -64.336149        43320   -66.726832    1.1294518   0.34018904 
   98270   0.60430287   -65.241828   -64.335521        43320   -66.737127    1.1405364   0.35476294 
   98280     0.608796   -65.249305    -64.33626        43320   -66.747525    1.1590254   0.33919475 
   98290   0.61186749   -65.254989   -64.337337        43320   -66.757488    1.1610606   0.34143932 
   98300   0.61222464   -65.255204   -64.337016        43320   -66.745522    1.1427933   0.34752518 
   98310   0.61262487   -65.253784   -64.334996        43320   -66.724598    1.1295354   0.34127898 
   98320   0.61075092   -65.252627    -64.33665        43320   -66.740709    1.1355809   0.35250088 
   98330   0.60805945   -65.248529   -64.336589        43320   -66.740042    1.1552102   0.33630274 
   98340   0.61185854   -65.253262   -64.335623        43320   -66.782801    1.1852646   0.34427504 
   98350   0.61299079   -65.257194   -64.337857        43320   -66.786823     1.182416   0.34721339 
   98360   0.60612447   -65.244891   -64.335853        43320   -66.707337    1.1299698   0.33247636 
   98370   0.59925302    -65.23376   -64.335026        43320   -66.708651    1.1162188   0.35867304 
   98380   0.61164597   -65.253824   -64.336504        43320   -66.730705    1.1302006   0.34668047 
   98390   0.61283691   -65.256365   -64.337259        43320   -66.752484     1.158883   0.33723612 
   98400   0.61196473   -65.254052   -64.336255        43320   -66.788445    1.1808793   0.35351339 
   98410   0.61516953   -65.258176   -64.335572        43320   -66.758452    1.1591025   0.34117319 
   98420   0.61065532   -65.251855   -64.336021        43320    -66.72831    1.1320766   0.34437872 
   98430   0.61659781   -65.261394   -64.336648        43320   -66.734508    1.1281104   0.34500413 
   98440   0.61301889   -65.256998   -64.337619        43320   -66.728934    1.1337349   0.33820117 
   98450    0.6187694   -65.264899   -64.336896        43320    -66.78064    1.1668517    0.3488888 
   98460   0.60503411   -65.241569   -64.334166        43320   -66.764253    1.1720437   0.35063998 
   98470   0.61384458   -65.257491   -64.336874        43320   -66.740645    1.1412047   0.34194883 
   98480     0.613013    -65.25623    -64.33686        43320    -66.72603    1.1300744   0.33972517 
   98490   0.61210001   -65.254097   -64.336097        43320   -66.725323    1.1282812    0.3429448 
   98500     0.610835   -65.252241   -64.336138        43320   -66.715946    1.1108687   0.35283589 
   98510   0.61125673   -65.252232   -64.335497        43320   -66.741424    1.1477525    0.3414391 
   98520   0.61472466   -65.259525   -64.337588        43320   -66.769929    1.1718668   0.33853665 
   98530   0.60836742   -65.248413   -64.336011        43320   -66.760601      1.16777   0.34441764 
   98540   0.60862562   -65.248206   -64.335417        43320   -66.732474    1.1358577   0.34841034 
   98550   0.61291089   -65.256168   -64.336951        43320   -66.718561    1.1139989   0.34839435 
   98560   0.61129429   -65.252999   -64.336207        43320   -66.729868    1.1327224   0.34414644 
   98570   0.61392203   -65.256654   -64.335921        43320    -66.74708    1.1401145   0.35031121 
   98580   0.61180613   -65.253858   -64.336298        43320   -66.749524     1.151511   0.34415563 
   98590   0.61673238   -65.262346   -64.337398        43320   -66.764212    1.1650094    0.3368559 
   98600    0.6069303   -65.245635   -64.335388        43320   -66.746596    1.1484735   0.35248758 
   98610   0.60922205   -65.250052   -64.336367        43320   -66.732732    1.1376247   0.34505526 
   98620   0.61665476    -65.26175   -64.336918        43320   -66.733195    1.1301939   0.34125143 
   98630   0.61386228   -65.255859   -64.335215        43320   -66.765639    1.1595969   0.35018278 
   98640   0.61425691    -65.25806   -64.336824        43320   -66.773093    1.1702896   0.34474372 
   98650   0.61458874    -65.25989   -64.338157        43320    -66.74148    1.1439809   0.33760879 
   98660   0.61211163   -65.254024   -64.336006        43320   -66.749118    1.1434603   0.35163332 
   98670   0.61182945   -65.251294   -64.333699        43320   -66.723532    1.1191995   0.35303848 
   98680   0.60535902   -65.244451   -64.336561        43320   -66.700362    1.1139492   0.34196142 
   98690   0.61266986   -65.256617   -64.337762        43320   -66.736755     1.136551   0.34358736 
   98700   0.61343344   -65.255854   -64.335853        43320   -66.778921    1.1783668   0.34470076 
   98710   0.61245267   -65.253744   -64.335215        43320   -66.768587    1.1681325   0.34670992 
   98720   0.61554244   -65.259952   -64.336789        43320   -66.768205    1.1626505   0.34560245 
   98730   0.60611919   -65.244416   -64.335386        43320   -66.725476    1.1384473   0.34261244 
   98740   0.61411681   -65.257131   -64.336106        43320   -66.728087    1.1167886   0.35416685 
   98750   0.61062712   -65.252534   -64.336742        43320   -66.716806    1.1232934   0.34097865 
   98760   0.60893562   -65.249435    -64.33618        43320   -66.734081    1.1420577   0.34258859 
   98770   0.61636401     -65.2604   -64.336004        43320   -66.777337    1.1649793   0.35195774 
   98780   0.60254125   -65.239726   -64.336061        43320   -66.758345    1.1789511   0.33966766 
   98790   0.61352994   -65.256577   -64.336432        43320   -66.767329    1.1593265   0.35142509 
   98800   0.60884168    -65.24794   -64.334826        43320   -66.728083    1.1394973   0.34064528 
   98810   0.61056426   -65.251634   -64.335937        43320   -66.739713    1.1376796   0.35040005 
   98820   0.61067142   -65.253758     -64.3379        43320   -66.745844    1.1447367   0.34734911 
   98830    0.6121399    -65.25426   -64.336199        43320    -66.73489    1.1448225   0.33580736 
   98840   0.61237848   -65.254033   -64.335615        43320   -66.750368    1.1379696   0.35836446 
   98850   0.61440297   -65.257255   -64.335801        43320   -66.748997    1.1472723   0.34446898 
   98860   0.61005557   -65.251651   -64.336716        43320   -66.740756    1.1482935   0.34081187 
   98870   0.61259976   -65.254616   -64.335866        43320   -66.767384    1.1540212   0.35874648 
   98880   0.61311544   -65.256692   -64.337169        43320    -66.75305    1.1585476   0.33781021 
   98890   0.61163537   -65.253947   -64.336643        43320   -66.778319    1.1770668   0.34730484 
   98900   0.61314627   -65.254413   -64.334844        43320    -66.75049    1.1400799   0.35599672 
   98910   0.61371714   -65.256925   -64.336499        43320   -66.719328    1.1275124   0.33489035 
   98920   0.61195277   -65.253622   -64.335842        43320   -66.743489    1.1338311   0.35603631 
   98930   0.61038552   -65.251799    -64.33637        43320   -66.727952    1.1400438   0.33610877 
   98940   0.60816521   -65.249607   -64.337508        43320   -66.757249    1.1598576   0.34778446 
   98950   0.61270834   -65.255124   -64.336211        43320   -66.765951    1.1626982   0.34812902 
   98960   0.60736936   -65.246139   -64.335233        43320   -66.740579    1.1537912   0.34064907 
   98970   0.60407966    -65.23975   -64.333778        43320   -66.721246    1.1178422   0.36365413 
   98980   0.61254103    -65.25569   -64.337028        43320   -66.715496    1.1251498   0.33465628 
   98990   0.62168676   -65.270843   -64.338465        43320   -66.767464    1.1534614   0.34315913 
   99000   0.61050317   -65.251295   -64.335689        43320   -66.746641    1.1439605   0.35138554 
   99010   0.61954903   -65.265809   -64.336637        43320   -66.757363    1.1569561   0.33459776 
   99020   0.60227323   -65.237713    -64.33445        43320   -66.758408    1.1597432   0.36095215 
   99030   0.61527991   -65.258805   -64.336035        43320   -66.721239    1.1206509   0.34178281 
   99040   0.61344905    -65.25732   -64.337296        43320   -66.739581    1.1359851   0.34627602 
   99050   0.61133659    -65.25294   -64.336084        43320   -66.758526    1.1539679   0.35161805 
   99060   0.61046276   -65.250838   -64.335293        43320   -66.735906    1.1413472   0.34372088 
   99070   0.62065112   -65.268213   -64.337388        43320   -66.766081    1.1418182   0.35604959 
   99080   0.61845226   -65.264804   -64.337277        43320   -66.746923    1.1385567   0.34356215 
   99090   0.60674873   -65.245507   -64.335532        43320   -66.727306    1.1334195   0.34837944 
   99100   0.60438781   -65.241608   -64.335174        43320   -66.759243    1.1557586   0.36187646 
   99110   0.60988887   -65.249822   -64.335137        43320   -66.747887    1.1578188   0.34024687 
   99120   0.62016526   -65.268428   -64.338332        43320   -66.766757    1.1526578   0.34567102 
   99130   0.60989098    -65.25191   -64.337222        43320   -66.747299    1.1469233    0.3484658 
   99140   0.60893261   -65.247919   -64.334669        43320   -66.729952    1.1266976   0.35533499 
   99150   0.60979465   -65.250741   -64.336198        43320   -66.745985    1.1421836   0.35306015 
   99160   0.61683838   -65.261923   -64.336816        43320   -66.749735    1.1434237   0.34438855 
   99170   0.61003214   -65.250296   -64.335396        43320   -66.769022    1.1628263   0.35590009 
   99180   0.61061897   -65.251963   -64.336184        43320   -66.772102    1.1644577   0.35568128 
   99190   0.60477536   -65.243871   -64.336856        43320   -66.727281    1.1403385   0.34307081 
   99200   0.60409276   -65.241439   -64.335447        43320   -66.728845    1.1352005   0.35220499 
   99210     0.618415   -65.264317   -64.336846        43320   -66.758085    1.1387508   0.35501735 
   99220   0.60745815   -65.246677   -64.335638        43320   -66.720151    1.1236992   0.34977516 
   99230   0.60264469   -65.239665   -64.335845        43320   -66.749024    1.1536404   0.35571881 
   99240   0.61607398   -65.261288   -64.337328        43320   -66.772098    1.1606447   0.35016538 
   99250   0.61751051   -65.262551   -64.336436        43320   -66.763518     1.153981   0.34698634 
   99260   0.61062232   -65.252169   -64.336385        43320   -66.762992    1.1585695   0.35225346 
   99270   0.60464985   -65.242641   -64.335814        43320   -66.731334    1.1389753    0.3497181 
   99280   0.61420917   -65.255714    -64.33455        43320   -66.722442    1.1111184   0.35560917 
   99290    0.6076382   -65.248257   -64.336948        43320    -66.72819    1.1262948   0.35363847 
   99300   0.61546439   -65.261939   -64.338892        43320   -66.744603    1.1456384   0.33702561 
   99310   0.60715899   -65.245252   -64.334662        43320   -66.757408    1.1500506   0.36210602 
   99320    0.6140503   -65.255061   -64.334135        43320   -66.752425    1.1340477     0.363317 
   99330   0.61106315   -65.254014   -64.337568        43320   -66.743935    1.1460802   0.34384048 
   99340    0.6164138   -65.261619   -64.337149        43320   -66.754432    1.1403088   0.35250347 
   99350   0.61582665   -65.258471   -64.334882        43320   -66.748582    1.1375389   0.35257153 
   99360   0.60541009   -65.243853   -64.335885        43320   -66.755838    1.1574391   0.35454671 
   99370   0.61106219   -65.253054    -64.33661        43320   -66.758681    1.1510615   0.35456524 
   99380   0.60630441    -65.24489   -64.335582        43320   -66.732103    1.1393542    0.3478581 
   99390   0.62133055   -65.268762   -64.336918        43320   -66.762502    1.1399324   0.35380764 
   99400   0.61307475   -65.256541   -64.337079        43320   -66.753728    1.1481984    0.3489879 
   99410   0.61612317   -65.259397   -64.335363        43320   -66.750307    1.1406904   0.35022019 
   99420   0.61160602   -65.252325   -64.335065        43320   -66.760033    1.1401244   0.36758379 
   99430   0.60796047   -65.247958   -64.336165        43320    -66.72276    1.1298807   0.34492176 
   99440   0.61632564   -65.261966   -64.337628        43320   -66.751263    1.1396086   0.34968847 
   99450   0.61655805   -65.260828   -64.336141        43320   -66.769485    1.1521421    0.3565154 
   99460   0.60916069   -65.249138   -64.335546        43320   -66.756581    1.1583897   0.34905342 
   99470   0.61148699   -65.253098   -64.336016        43320   -66.756473    1.1414669   0.36190876 
   99480   0.61715196   -65.262899   -64.337322        43320   -66.740944    1.1374839   0.34056147 
   99490   0.61285497   -65.256285   -64.337152        43320   -66.743763    1.1404412   0.34703718 
   99500   0.60342886   -65.239804   -64.334808        43320   -66.747071     1.137502   0.36976534 
   99510   0.60831703   -65.247105   -64.334778        43320   -66.722405    1.1275422   0.34775809 
   99520   0.61768323   -65.264265   -64.337891        43320   -66.738358    1.1226946   0.35139831 
   99530   0.61073431   -65.253367   -64.337414        43320   -66.738856    1.1384054   0.34708368 
   99540   0.61083937   -65.251924   -64.335814        43320   -66.764737    1.1627547   0.35005819 
   99550   0.60678177   -65.245246   -64.335222        43320    -66.77844     1.170716     0.362478 
   99560   0.61024934    -65.25138   -64.336155        43320   -66.766004    1.1739437   0.34067989 
   99570   0.60857843   -65.249614   -64.336895        43320   -66.739305    1.1361147   0.35357676 
   99580   0.61083996   -65.251577   -64.335466        43320   -66.705234    1.0914104    0.3622465 
   99590   0.60964687   -65.250464   -64.336143        43320   -66.718396     1.120895   0.34703641 
   99600   0.60923309   -65.249683   -64.335982        43320    -66.75513    1.1455329   0.35991452 
   99610   0.61962091   -65.266277   -64.336997        43320   -66.774838    1.1585766   0.34998349 
   99620   0.61060372   -65.252185   -64.336429        43320   -66.778501    1.1772961   0.34901983 
   99630   0.61479891   -65.258466   -64.336417        43320   -66.766445       1.1486    0.3593791 
   99640   0.61235054   -65.255211   -64.336835        43320   -66.729005    1.1284546   0.34533945 
   99650   0.60827666   -65.247626    -64.33536        43320   -66.727947    1.1212612   0.35906018 
   99660    0.6125949   -65.253875   -64.335133        43320   -66.743424    1.1253452   0.36420288 
   99670   0.62016304   -65.267665   -64.337572        43320   -66.756705    1.1482826   0.34075648 
   99680   0.61042061   -65.253046   -64.337564        43320   -66.775931    1.1667558   0.35612927 
   99690   0.61387315   -65.256342   -64.335682        43320   -66.764209    1.1536113   0.35425579 
   99700   0.60914131   -65.248565   -64.335002        43320   -66.711887    1.1055424   0.35777988 
   99710   0.61346796   -65.257068   -64.337016        43320   -66.737094    1.1260733   0.35395341 
   99720   0.61922999   -65.265931   -64.337237        43320   -66.743139    1.1344716    0.3427367 
   99730   0.61021679   -65.251278   -64.336102        43320    -66.75105    1.1342731   0.36549894 
   99740   0.60822558   -65.247544   -64.335354        43320   -66.771592      1.16844   0.35560768 
   99750   0.61560537    -65.25994   -64.336682        43320   -66.757837    1.1500197   0.34787743 
   99760   0.60880395    -65.25025   -64.337193        43320   -66.742998    1.1381785   0.35456922 
   99770   0.61338161   -65.255951   -64.336029        43320   -66.749342    1.1450436   0.34834734 
   99780   0.61299544   -65.255248   -64.335905        43320   -66.736114    1.1233763   0.35748989 
   99790   0.61101232   -65.252372   -64.336003        43320   -66.749658    1.1411647   0.35612072 
   99800   0.61125145   -65.252787   -64.336059        43320   -66.746161    1.1466964   0.34667821 
   99810   0.61410929   -65.257606   -64.336592        43320   -66.762672    1.1462636   0.35880244 
   99820   0.60609009   -65.245497    -64.33651        43320   -66.723673    1.1297115   0.34846438 
   99830     0.613354   -65.256077   -64.336195        43320    -66.75547    1.1408481   0.35854472 
   99840   0.61778744   -65.261997   -64.335467        43320   -66.765308    1.1387362     0.364574 
   99850   0.60994184   -65.251116   -64.336352        43320     -66.7475    1.1479827    0.3484013 
   99860   0.61112107   -65.252854   -64.336322        43320   -66.768799    1.1570052   0.35893941 
   99870   0.60904548   -65.249748   -64.336328        43320   -66.738968    1.1428073   0.34641268 
   99880    0.6070375   -65.246625   -64.336217        43320    -66.73449    1.1353022   0.35256289 
   99890   0.61410741   -65.256873   -64.335861        43320   -66.749537    1.1283697   0.36429464 
   99900   0.60766954    -65.24711   -64.335754        43320   -66.733762    1.1406543   0.34599816 
   99910    0.6091821   -65.249786   -64.336161        43320   -66.757405    1.1523316   0.35528794 
   99920   0.61135282   -65.252288   -64.335408        43320   -66.751157    1.1397628   0.35910612 
   99930   0.61626547   -65.261086   -64.336838        43320   -66.749109    1.1411056   0.34691772 
   99940   0.61268661    -65.25496    -64.33608        43320   -66.755903    1.1408175   0.36012593 
   99950   0.60727564   -65.246613   -64.335848        43320   -66.733747    1.1396965   0.34743709 
   99960   0.61403279   -65.256497   -64.335598        43320   -66.772302     1.162191   0.35361406 
   99970   0.60662281    -65.24422   -64.334434        43320   -66.750434    1.1428496   0.36336469 
   99980   0.61666818   -65.262487   -64.337636        43320   -66.734717    1.1326885   0.33954161 
   99990   0.61757455   -65.263446   -64.337235        43320   -66.737612    1.1220413   0.35212482 
  100000   0.60172918    -65.23706   -64.334614        43320   -66.715208    1.1312657   0.34688169 
Loop time of 1144.45 on 1 procs for 100000 steps with 6144 atoms

Performance: 37747.478 tau/day, 87.378 timesteps/s
99.7% CPU use with 1 MPI tasks x no OpenMP threads

MPI task timing breakdown:
Section |  min time  |  avg time  |  max time  |%varavg| %total
---------------------------------------------------------------
Pair    | 854.92     | 854.92     | 854.92     |   0.0 | 74.70
Bond    | 70.072     | 70.072     | 70.072     |   0.0 |  6.12
Neigh   | 177.82     | 177.82     | 177.82     |   0.0 | 15.54
Comm    | 7.569      | 7.569      | 7.569      |   0.0 |  0.66
Output  | 7.2298     | 7.2298     | 7.2298     |   0.0 |  0.63
Modify  | 18.083     | 18.083     | 18.083     |   0.0 |  1.58
Other   |            | 8.755      |            |       |  0.76

Nlocal:    6144 ave 6144 max 6144 min
Histogram: 1 0 0 0 0 0 0 0 0 0
Nghost:    1733 ave 1733 max 1733 min
Histogram: 1 0 0 0 0 0 0 0 0 0
Neighs:    164295 ave 164295 max 164295 min
Histogram: 1 0 0 0 0 0 0 0 0 0

Total # of neighbors = 164295
Ave neighs/atom = 26.7407
Ave special neighs/atom = 2
Neighbor list builds = 9054
Dangerous builds = 0

write_data system_after_nve.data

Total wall time: 0:19:04
