LAMMPS (7 Aug 2019)
Reading data file ...
  orthogonal box = (0 0 0) to (38 38 30)
  1 by 1 by 1 MPI processor grid
  reading atoms ...
  6144 atoms
  scanning bonds ...
  1 = max bonds/atom
  scanning angles ...
  1 = max angles/atom
  reading bonds ...
  4096 bonds
  reading angles ...
  2048 angles
Finding 1-2 1-3 1-4 neighbors ...
  special bond factors lj:   0          0          0         
  special bond factors coul: 0          0          0         
  2 = max # of 1-2 neighbors
  1 = max # of 1-3 neighbors
  1 = max # of 1-4 neighbors
  2 = max # of special neighbors
  special bonds CPU = 0.00367093 secs
  read_data CPU = 0.039916 secs
WARNING: 5 of 251 force values in table are inconsistent with -dE/dr.
  Should only be flagged at inflection points (../pair_table.cpp:483)
WARNING: 2 of 251 force values in table are inconsistent with -dE/dr.
  Should only be flagged at inflection points (../pair_table.cpp:483)
WARNING: 2 of 251 force values in table are inconsistent with -dE/dr.
  Should only be flagged at inflection points (../pair_table.cpp:483)
WARNING: 2 of 251 force values in table are inconsistent with -dE/dr.
  Should only be flagged at inflection points (../pair_table.cpp:483)
WARNING: 5 of 251 force values in table are inconsistent with -dE/dr.
  Should only be flagged at inflection points (../pair_table.cpp:483)
WARNING: 1 of 251 force values in table are inconsistent with -dE/dr.
  Should only be flagged at inflection points (../pair_table.cpp:483)
6144 atoms in group LIPID
Neighbor list info ...
  update every 1 steps, delay 0 steps, check yes
  max neighbors/atom: 2000, page size: 100000
  master list distance cutoff = 2.8
  ghost atom cutoff = 2.8
  binsize = 1.4, bins = 28 28 22
  1 neighbor lists, perpetual/occasional/extra = 1 0 0
  (1) pair table, perpetual
      attributes: half, newton on
      pair build: half/bin/newton
      stencil: half/bin/3d/newton
      bin: standard
Setting up cg style minimization ...
  Unit style    : lj
  Current step  : 0
Per MPI rank memory allocation (min/avg/max) = 9.772 | 9.772 | 9.772 Mbytes
Step PotEng TotEng Volume E_pair E_bond E_angle 
       0    296.88176    296.88176        43320    296.88176            0            0 
      20    25.642951    25.642951        43320    18.187606    6.0706728     1.384673 
      40   -11.666304   -11.666304        43320    -16.07044    3.4141576    0.9899781 
      60   -45.219935   -45.219935        43320   -46.903465     1.413141   0.27038927 
      80   -51.818768   -51.818768        43320   -52.788776   0.84678867    0.1232192 
     100   -54.425492   -54.425492        43320   -55.211021   0.70232152  0.083206774 
     120   -55.305858   -55.305858        43320   -56.017112   0.64210937  0.069145079 
     140   -55.702502   -55.702502        43320   -56.385815   0.61805709  0.065255488 
     160   -56.239919   -56.239919        43320   -56.954427   0.65205806  0.062449928 
     180   -57.867183   -57.867183        43320   -58.699625   0.76531157  0.067131113 
     200   -59.856851   -59.856851        43320   -60.728423   0.79706336  0.074508679 
     220   -61.448071   -61.448071        43320   -62.410113   0.87742289  0.084619373 
     240   -62.551101   -62.551101        43320   -63.528306   0.88171265  0.095492061 
     260   -63.134505   -63.134505        43320   -64.130572   0.89691882  0.099148187 
     280   -63.658613   -63.658613        43320   -64.668266   0.90726442   0.10238872 
     300   -64.223863   -64.223863        43320   -65.252428   0.92324759   0.10531763 
     320    -64.53807    -64.53807        43320   -65.561018   0.91644546   0.10650287 
     340    -64.70814    -64.70814        43320   -65.731202   0.91512703   0.10793455 
     360   -64.842293   -64.842293        43320   -65.867453   0.91540537   0.10975395 
     380   -64.967813   -64.967813        43320   -65.997572   0.91955426   0.11020522 
     400   -65.065147   -65.065147        43320   -66.088224   0.91151247    0.1115649 
     420   -65.136508   -65.136508        43320    -66.16341   0.91538779   0.11151486 
     440   -65.204434   -65.204434        43320   -66.230538   0.91460773   0.11149581 
     460   -65.249158   -65.249158        43320   -66.276606   0.91544711    0.1120012 
     480   -65.290841   -65.290841        43320   -66.322593   0.91822437   0.11352804 
     500    -65.33346    -65.33346        43320   -66.364713   0.91778086   0.11347179 
     520   -65.373527   -65.373527        43320     -66.4056   0.91890422   0.11316952 
     540   -65.412273   -65.412273        43320   -66.447824   0.92204553   0.11350542 
     560    -65.46358    -65.46358        43320   -66.501434   0.92426845   0.11358535 
     580   -65.517073   -65.517073        43320   -66.553339   0.92214512   0.11412114 
     600   -65.553321   -65.553321        43320   -66.589026   0.92141582   0.11428978 
     620   -65.591391   -65.591391        43320   -66.627764   0.92232152   0.11405097 
     640   -65.617819   -65.617819        43320   -66.655074   0.92329084   0.11396433 
     660   -65.632099   -65.632099        43320   -66.668876   0.92270351   0.11407332 
     680   -65.640976   -65.640976        43320   -66.678013   0.92292936   0.11410813 
     700   -65.646839   -65.646839        43320   -66.684337   0.92339326   0.11410499 
     720   -65.654673   -65.654673        43320   -66.692097   0.92332472   0.11409908 
     740   -65.663325   -65.663325        43320   -66.701327   0.92401016   0.11399229 
     760   -65.669457   -65.669457        43320   -66.708041    0.9245157   0.11406887 
     780    -65.67567    -65.67567        43320   -66.714264   0.92437465   0.11421903 
     800   -65.686195   -65.686195        43320   -66.726382   0.92517362   0.11501291 
     820   -65.701745   -65.701745        43320   -66.745286   0.92877383   0.11476773 
     840   -65.717772   -65.717772        43320   -66.762676   0.93000001   0.11490403 
     860   -65.737418   -65.737418        43320   -66.782655   0.93016799   0.11506979 
     880   -65.755391   -65.755391        43320   -66.800474   0.93011616   0.11496665 
     900    -65.76851    -65.76851        43320   -66.812791   0.92917087   0.11510993 
     920   -65.779433   -65.779433        43320   -66.823825   0.92907275    0.1153189 
     940   -65.791974   -65.791974        43320   -66.836994   0.92964998   0.11536942 
     960   -65.800258   -65.800258        43320   -66.845099    0.9295286   0.11531234 
     980   -65.808506   -65.808506        43320   -66.851533   0.92778396   0.11524383 
    1000   -65.821331   -65.821331        43320   -66.863758   0.92723513   0.11519197 
    1020    -65.83033    -65.83033        43320   -66.871351   0.92598272   0.11503821 
    1040    -65.83729    -65.83729        43320   -66.877538    0.9254672   0.11478094 
    1060   -65.841589   -65.841589        43320   -66.882612   0.92628004     0.114743 
    1080   -65.845479   -65.845479        43320    -66.88771   0.92751252    0.1147183 
    1100   -65.853506   -65.853506        43320   -66.896033   0.92793766   0.11458941 
    1120   -65.860527   -65.860527        43320   -66.903143   0.92777187   0.11484329 
    1140   -65.866747   -65.866747        43320   -66.909456   0.92778568   0.11492325 
    1160     -65.8709     -65.8709        43320    -66.91423   0.92830738   0.11502341 
    1180   -65.874865   -65.874865        43320    -66.91848   0.92874086    0.1148749 
    1200   -65.878377   -65.878377        43320   -66.921808   0.92856462   0.11486642 
    1220   -65.883406   -65.883406        43320   -66.928086   0.92954556    0.1151347 
    1240   -65.887839   -65.887839        43320   -66.933147   0.93050914   0.11479888 
    1260    -65.89128    -65.89128        43320   -66.937685    0.9314862   0.11491844 
    1280     -65.8933     -65.8933        43320   -66.938641   0.93036475   0.11497636 
    1300    -65.89487    -65.89487        43320   -66.940154   0.93042865   0.11485542 
    1320   -65.897103   -65.897103        43320   -66.942115   0.93014896   0.11486223 
    1340   -65.899904   -65.899904        43320    -66.94466    0.9299147   0.11484078 
    1360   -65.902632   -65.902632        43320   -66.947529    0.9300382    0.1148588 
    1380   -65.904547   -65.904547        43320   -66.949392   0.93001825   0.11482684 
    1400   -65.905835   -65.905835        43320   -66.951378   0.93068539     0.114857 
    1420   -65.907127   -65.907127        43320   -66.953561   0.93159746   0.11483687 
    1440   -65.908386   -65.908386        43320   -66.955106   0.93176092     0.114959 
    1460   -65.909447   -65.909447        43320   -66.956128   0.93175715   0.11492298 
    1480   -65.910452   -65.910452        43320    -66.95742   0.93202224   0.11494542 
    1500   -65.912009   -65.912009        43320   -66.959634   0.93261827   0.11500605 
    1520   -65.915219   -65.915219        43320   -66.963086   0.93286197   0.11500471 
    1540   -65.922112   -65.922112        43320   -66.970297   0.93357298   0.11461225 
    1560   -65.926029   -65.926029        43320   -66.973665   0.93298575   0.11465014 
    1580   -65.927831   -65.927831        43320   -66.975146   0.93254493   0.11477042 
    1600   -65.928577   -65.928577        43320   -66.975947   0.93264648    0.1147241 
    1620   -65.929017   -65.929017        43320   -66.976448   0.93268765   0.11474297 
    1640   -65.929258   -65.929258        43320   -66.976575   0.93255076   0.11476601 
    1641   -65.929265   -65.929265        43320   -66.976611   0.93259025   0.11475544 
Loop time of 45.7965 on 1 procs for 1641 steps with 6144 atoms

99.8% CPU use with 1 MPI tasks x no OpenMP threads

Minimization stats:
  Stopping criterion = energy tolerance
  Energy initial, next-to-last, final = 
         296.881762259     -65.9292583846     -65.9292648768
  Force two-norm initial, final = 556827 43.1134
  Force max component initial, final = 12056.7 11.7606
  Final line search alpha, max atom move = 0.00456185 0.0536499
  Iterations, force evaluations = 1641 3294

MPI task timing breakdown:
Section |  min time  |  avg time  |  max time  |%varavg| %total
---------------------------------------------------------------
Pair    | 36.281     | 36.281     | 36.281     |   0.0 | 79.22
Bond    | 2.3599     | 2.3599     | 2.3599     |   0.0 |  5.15
Neigh   | 5.5927     | 5.5927     | 5.5927     |   0.0 | 12.21
Comm    | 0.23546    | 0.23546    | 0.23546    |   0.0 |  0.51
Output  | 0.096078   | 0.096078   | 0.096078   |   0.0 |  0.21
Modify  | 0          | 0          | 0          |   0.0 |  0.00
Other   |            | 1.232      |            |       |  2.69

Nlocal:    6144 ave 6144 max 6144 min
Histogram: 1 0 0 0 0 0 0 0 0 0
Nghost:    1700 ave 1700 max 1700 min
Histogram: 1 0 0 0 0 0 0 0 0 0
Neighs:    164617 ave 164617 max 164617 min
Histogram: 1 0 0 0 0 0 0 0 0 0

Total # of neighbors = 164617
Ave neighs/atom = 26.7931
Ave special neighs/atom = 2
Neighbor list builds = 302
Dangerous builds = 0
System init for write_data ...
Total wall time: 0:00:45
