ITEM: TIMESTEP
0
ITEM: NUMBER OF ATOMS
6144
ITEM: BOX BOUNDS pp pp pp
0.0000000000000000e+00 3.8000000000000000e+01
0.0000000000000000e+00 3.8000000000000000e+01
0.0000000000000000e+00 3.0000000000000000e+01
ITEM: ATOMS id mol type x y z ix iy iz 
4 2 1 0 0 7.49 0 0 0 
5 2 2 0 0 8.49 0 0 0 
10 4 1 0 1.05 7.49 0 0 0 
11 4 2 0 1.05 8.49 0 0 0 
196 66 1 1.05 0 7.49 0 0 0 
197 66 2 1.05 0 8.49 0 0 0 
202 68 1 1.05 1.05 7.49 0 0 0 
203 68 2 1.05 1.05 8.49 0 0 0 
388 130 1 2.1 0 7.49 0 0 0 
389 130 2 2.1 0 8.49 0 0 0 
394 132 1 2.1 1.05 7.49 0 0 0 
395 132 2 2.1 1.05 8.49 0 0 0 
580 194 1 3.15 0 7.49 0 0 0 
581 194 2 3.15 0 8.49 0 0 0 
586 196 1 3.15 1.05 7.49 0 0 0 
587 196 2 3.15 1.05 8.49 0 0 0 
772 258 1 4.2 0 7.49 0 0 0 
773 258 2 4.2 0 8.49 0 0 0 
778 260 1 4.2 1.05 7.49 0 0 0 
779 260 2 4.2 1.05 8.49 0 0 0 
964 322 1 5.25 0 7.49 0 0 0 
965 322 2 5.25 0 8.49 0 0 0 
970 324 1 5.25 1.05 7.49 0 0 0 
971 324 2 5.25 1.05 8.49 0 0 0 
1156 386 1 6.3 0 7.49 0 0 0 
1157 386 2 6.3 0 8.49 0 0 0 
1162 388 1 6.3 1.05 7.49 0 0 0 
1163 388 2 6.3 1.05 8.49 0 0 0 
1348 450 1 7.35 0 7.49 0 0 0 
1349 450 2 7.35 0 8.49 0 0 0 
1354 452 1 7.35 1.05 7.49 0 0 0 
1355 452 2 7.35 1.05 8.49 0 0 0 
1540 514 1 8.4 0 7.49 0 0 0 
1541 514 2 8.4 0 8.49 0 0 0 
1546 516 1 8.4 1.05 7.49 0 0 0 
1547 516 2 8.4 1.05 8.49 0 0 0 
1732 578 1 9.45 0 7.49 0 0 0 
1733 578 2 9.45 0 8.49 0 0 0 
1738 580 1 9.45 1.05 7.49 0 0 0 
1739 580 2 9.45 1.05 8.49 0 0 0 
1924 642 1 10.5 0 7.49 0 0 0 
1925 642 2 10.5 0 8.49 0 0 0 
1930 644 1 10.5 1.05 7.49 0 0 0 
1931 644 2 10.5 1.05 8.49 0 0 0 
2116 706 1 11.55 0 7.49 0 0 0 
2117 706 2 11.55 0 8.49 0 0 0 
2122 708 1 11.55 1.05 7.49 0 0 0 
2123 708 2 11.55 1.05 8.49 0 0 0 
2308 770 1 12.6 0 7.49 0 0 0 
2309 770 2 12.6 0 8.49 0 0 0 
2314 772 1 12.6 1.05 7.49 0 0 0 
2315 772 2 12.6 1.05 8.49 0 0 0 
2500 834 1 13.65 0 7.49 0 0 0 
2501 834 2 13.65 0 8.49 0 0 0 
2506 836 1 13.65 1.05 7.49 0 0 0 
2507 836 2 13.65 1.05 8.49 0 0 0 
2692 898 1 14.7 0 7.49 0 0 0 
2693 898 2 14.7 0 8.49 0 0 0 
2698 900 1 14.7 1.05 7.49 0 0 0 
2699 900 2 14.7 1.05 8.49 0 0 0 
2884 962 1 15.75 0 7.49 0 0 0 
2885 962 2 15.75 0 8.49 0 0 0 
2890 964 1 15.75 1.05 7.49 0 0 0 
2891 964 2 15.75 1.05 8.49 0 0 0 
3076 1026 1 16.8 0 7.49 0 0 0 
3077 1026 2 16.8 0 8.49 0 0 0 
3082 1028 1 16.8 1.05 7.49 0 0 0 
3083 1028 2 16.8 1.05 8.49 0 0 0 
3268 1090 1 17.85 0 7.49 0 0 0 
3269 1090 2 17.85 0 8.49 0 0 0 
3274 1092 1 17.85 1.05 7.49 0 0 0 
3275 1092 2 17.85 1.05 8.49 0 0 0 
3460 1154 1 18.9 0 7.49 0 0 0 
3461 1154 2 18.9 0 8.49 0 0 0 
3466 1156 1 18.9 1.05 7.49 0 0 0 
3467 1156 2 18.9 1.05 8.49 0 0 0 
3652 1218 1 19.95 0 7.49 0 0 0 
3653 1218 2 19.95 0 8.49 0 0 0 
3658 1220 1 19.95 1.05 7.49 0 0 0 
3659 1220 2 19.95 1.05 8.49 0 0 0 
3844 1282 1 21 0 7.49 0 0 0 
3845 1282 2 21 0 8.49 0 0 0 
3850 1284 1 21 1.05 7.49 0 0 0 
3851 1284 2 21 1.05 8.49 0 0 0 
4036 1346 1 22.05 0 7.49 0 0 0 
4037 1346 2 22.05 0 8.49 0 0 0 
4042 1348 1 22.05 1.05 7.49 0 0 0 
4043 1348 2 22.05 1.05 8.49 0 0 0 
4228 1410 1 23.1 0 7.49 0 0 0 
4229 1410 2 23.1 0 8.49 0 0 0 
4234 1412 1 23.1 1.05 7.49 0 0 0 
4235 1412 2 23.1 1.05 8.49 0 0 0 
4420 1474 1 24.15 0 7.49 0 0 0 
4421 1474 2 24.15 0 8.49 0 0 0 
4426 1476 1 24.15 1.05 7.49 0 0 0 
4427 1476 2 24.15 1.05 8.49 0 0 0 
4612 1538 1 25.2 0 7.49 0 0 0 
4613 1538 2 25.2 0 8.49 0 0 0 
4618 1540 1 25.2 1.05 7.49 0 0 0 
4619 1540 2 25.2 1.05 8.49 0 0 0 
4804 1602 1 26.25 0 7.49 0 0 0 
4805 1602 2 26.25 0 8.49 0 0 0 
4810 1604 1 26.25 1.05 7.49 0 0 0 
4811 1604 2 26.25 1.05 8.49 0 0 0 
4996 1666 1 27.3 0 7.49 0 0 0 
4997 1666 2 27.3 0 8.49 0 0 0 
5002 1668 1 27.3 1.05 7.49 0 0 0 
5003 1668 2 27.3 1.05 8.49 0 0 0 
5188 1730 1 28.35 0 7.49 0 0 0 
5189 1730 2 28.35 0 8.49 0 0 0 
5194 1732 1 28.35 1.05 7.49 0 0 0 
5195 1732 2 28.35 1.05 8.49 0 0 0 
5380 1794 1 29.4 0 7.49 0 0 0 
5381 1794 2 29.4 0 8.49 0 0 0 
5386 1796 1 29.4 1.05 7.49 0 0 0 
5387 1796 2 29.4 1.05 8.49 0 0 0 
5572 1858 1 30.45 0 7.49 0 0 0 
5573 1858 2 30.45 0 8.49 0 0 0 
5578 1860 1 30.45 1.05 7.49 0 0 0 
5579 1860 2 30.45 1.05 8.49 0 0 0 
5764 1922 1 31.5 0 7.49 0 0 0 
5765 1922 2 31.5 0 8.49 0 0 0 
5770 1924 1 31.5 1.05 7.49 0 0 0 
5771 1924 2 31.5 1.05 8.49 0 0 0 
5956 1986 1 32.55 0 7.49 0 0 0 
5957 1986 2 32.55 0 8.49 0 0 0 
5962 1988 1 32.55 1.05 7.49 0 0 0 
5963 1988 2 32.55 1.05 8.49 0 0 0 
16 6 1 0 2.1 7.49 0 0 0 
17 6 2 0 2.1 8.49 0 0 0 
208 70 1 1.05 2.1 7.49 0 0 0 
209 70 2 1.05 2.1 8.49 0 0 0 
400 134 1 2.1 2.1 7.49 0 0 0 
401 134 2 2.1 2.1 8.49 0 0 0 
592 198 1 3.15 2.1 7.49 0 0 0 
593 198 2 3.15 2.1 8.49 0 0 0 
784 262 1 4.2 2.1 7.49 0 0 0 
785 262 2 4.2 2.1 8.49 0 0 0 
976 326 1 5.25 2.1 7.49 0 0 0 
977 326 2 5.25 2.1 8.49 0 0 0 
1168 390 1 6.3 2.1 7.49 0 0 0 
1169 390 2 6.3 2.1 8.49 0 0 0 
1360 454 1 7.35 2.1 7.49 0 0 0 
1361 454 2 7.35 2.1 8.49 0 0 0 
1552 518 1 8.4 2.1 7.49 0 0 0 
1553 518 2 8.4 2.1 8.49 0 0 0 
1744 582 1 9.45 2.1 7.49 0 0 0 
1745 582 2 9.45 2.1 8.49 0 0 0 
1936 646 1 10.5 2.1 7.49 0 0 0 
1937 646 2 10.5 2.1 8.49 0 0 0 
2128 710 1 11.55 2.1 7.49 0 0 0 
2129 710 2 11.55 2.1 8.49 0 0 0 
2320 774 1 12.6 2.1 7.49 0 0 0 
2321 774 2 12.6 2.1 8.49 0 0 0 
2512 838 1 13.65 2.1 7.49 0 0 0 
2513 838 2 13.65 2.1 8.49 0 0 0 
2704 902 1 14.7 2.1 7.49 0 0 0 
2705 902 2 14.7 2.1 8.49 0 0 0 
2896 966 1 15.75 2.1 7.49 0 0 0 
2897 966 2 15.75 2.1 8.49 0 0 0 
3088 1030 1 16.8 2.1 7.49 0 0 0 
3089 1030 2 16.8 2.1 8.49 0 0 0 
3280 1094 1 17.85 2.1 7.49 0 0 0 
3281 1094 2 17.85 2.1 8.49 0 0 0 
3472 1158 1 18.9 2.1 7.49 0 0 0 
3473 1158 2 18.9 2.1 8.49 0 0 0 
3664 1222 1 19.95 2.1 7.49 0 0 0 
3665 1222 2 19.95 2.1 8.49 0 0 0 
3856 1286 1 21 2.1 7.49 0 0 0 
3857 1286 2 21 2.1 8.49 0 0 0 
4048 1350 1 22.05 2.1 7.49 0 0 0 
4049 1350 2 22.05 2.1 8.49 0 0 0 
4240 1414 1 23.1 2.1 7.49 0 0 0 
4241 1414 2 23.1 2.1 8.49 0 0 0 
4432 1478 1 24.15 2.1 7.49 0 0 0 
4433 1478 2 24.15 2.1 8.49 0 0 0 
4624 1542 1 25.2 2.1 7.49 0 0 0 
4625 1542 2 25.2 2.1 8.49 0 0 0 
4816 1606 1 26.25 2.1 7.49 0 0 0 
4817 1606 2 26.25 2.1 8.49 0 0 0 
5008 1670 1 27.3 2.1 7.49 0 0 0 
5009 1670 2 27.3 2.1 8.49 0 0 0 
5200 1734 1 28.35 2.1 7.49 0 0 0 
5201 1734 2 28.35 2.1 8.49 0 0 0 
5392 1798 1 29.4 2.1 7.49 0 0 0 
5393 1798 2 29.4 2.1 8.49 0 0 0 
5584 1862 1 30.45 2.1 7.49 0 0 0 
5585 1862 2 30.45 2.1 8.49 0 0 0 
5776 1926 1 31.5 2.1 7.49 0 0 0 
5777 1926 2 31.5 2.1 8.49 0 0 0 
5968 1990 1 32.55 2.1 7.49 0 0 0 
5969 1990 2 32.55 2.1 8.49 0 0 0 
22 8 1 0 3.15 7.49 0 0 0 
23 8 2 0 3.15 8.49 0 0 0 
28 10 1 0 4.2 7.49 0 0 0 
29 10 2 0 4.2 8.49 0 0 0 
214 72 1 1.05 3.15 7.49 0 0 0 
215 72 2 1.05 3.15 8.49 0 0 0 
220 74 1 1.05 4.2 7.49 0 0 0 
221 74 2 1.05 4.2 8.49 0 0 0 
406 136 1 2.1 3.15 7.49 0 0 0 
407 136 2 2.1 3.15 8.49 0 0 0 
412 138 1 2.1 4.2 7.49 0 0 0 
413 138 2 2.1 4.2 8.49 0 0 0 
598 200 1 3.15 3.15 7.49 0 0 0 
599 200 2 3.15 3.15 8.49 0 0 0 
604 202 1 3.15 4.2 7.49 0 0 0 
605 202 2 3.15 4.2 8.49 0 0 0 
790 264 1 4.2 3.15 7.49 0 0 0 
791 264 2 4.2 3.15 8.49 0 0 0 
796 266 1 4.2 4.2 7.49 0 0 0 
797 266 2 4.2 4.2 8.49 0 0 0 
982 328 1 5.25 3.15 7.49 0 0 0 
983 328 2 5.25 3.15 8.49 0 0 0 
988 330 1 5.25 4.2 7.49 0 0 0 
989 330 2 5.25 4.2 8.49 0 0 0 
1174 392 1 6.3 3.15 7.49 0 0 0 
1175 392 2 6.3 3.15 8.49 0 0 0 
1180 394 1 6.3 4.2 7.49 0 0 0 
1181 394 2 6.3 4.2 8.49 0 0 0 
1366 456 1 7.35 3.15 7.49 0 0 0 
1367 456 2 7.35 3.15 8.49 0 0 0 
1372 458 1 7.35 4.2 7.49 0 0 0 
1373 458 2 7.35 4.2 8.49 0 0 0 
1558 520 1 8.4 3.15 7.49 0 0 0 
1559 520 2 8.4 3.15 8.49 0 0 0 
1564 522 1 8.4 4.2 7.49 0 0 0 
1565 522 2 8.4 4.2 8.49 0 0 0 
1750 584 1 9.45 3.15 7.49 0 0 0 
1751 584 2 9.45 3.15 8.49 0 0 0 
1756 586 1 9.45 4.2 7.49 0 0 0 
1757 586 2 9.45 4.2 8.49 0 0 0 
1942 648 1 10.5 3.15 7.49 0 0 0 
1943 648 2 10.5 3.15 8.49 0 0 0 
1948 650 1 10.5 4.2 7.49 0 0 0 
1949 650 2 10.5 4.2 8.49 0 0 0 
2134 712 1 11.55 3.15 7.49 0 0 0 
2135 712 2 11.55 3.15 8.49 0 0 0 
2140 714 1 11.55 4.2 7.49 0 0 0 
2141 714 2 11.55 4.2 8.49 0 0 0 
2326 776 1 12.6 3.15 7.49 0 0 0 
2327 776 2 12.6 3.15 8.49 0 0 0 
2332 778 1 12.6 4.2 7.49 0 0 0 
2333 778 2 12.6 4.2 8.49 0 0 0 
2518 840 1 13.65 3.15 7.49 0 0 0 
2519 840 2 13.65 3.15 8.49 0 0 0 
2524 842 1 13.65 4.2 7.49 0 0 0 
2525 842 2 13.65 4.2 8.49 0 0 0 
2710 904 1 14.7 3.15 7.49 0 0 0 
2711 904 2 14.7 3.15 8.49 0 0 0 
2716 906 1 14.7 4.2 7.49 0 0 0 
2717 906 2 14.7 4.2 8.49 0 0 0 
2902 968 1 15.75 3.15 7.49 0 0 0 
2903 968 2 15.75 3.15 8.49 0 0 0 
2908 970 1 15.75 4.2 7.49 0 0 0 
2909 970 2 15.75 4.2 8.49 0 0 0 
3094 1032 1 16.8 3.15 7.49 0 0 0 
3095 1032 2 16.8 3.15 8.49 0 0 0 
3100 1034 1 16.8 4.2 7.49 0 0 0 
3101 1034 2 16.8 4.2 8.49 0 0 0 
3286 1096 1 17.85 3.15 7.49 0 0 0 
3287 1096 2 17.85 3.15 8.49 0 0 0 
3292 1098 1 17.85 4.2 7.49 0 0 0 
3293 1098 2 17.85 4.2 8.49 0 0 0 
3478 1160 1 18.9 3.15 7.49 0 0 0 
3479 1160 2 18.9 3.15 8.49 0 0 0 
3484 1162 1 18.9 4.2 7.49 0 0 0 
3485 1162 2 18.9 4.2 8.49 0 0 0 
3670 1224 1 19.95 3.15 7.49 0 0 0 
3671 1224 2 19.95 3.15 8.49 0 0 0 
3676 1226 1 19.95 4.2 7.49 0 0 0 
3677 1226 2 19.95 4.2 8.49 0 0 0 
3862 1288 1 21 3.15 7.49 0 0 0 
3863 1288 2 21 3.15 8.49 0 0 0 
3868 1290 1 21 4.2 7.49 0 0 0 
3869 1290 2 21 4.2 8.49 0 0 0 
4054 1352 1 22.05 3.15 7.49 0 0 0 
4055 1352 2 22.05 3.15 8.49 0 0 0 
4060 1354 1 22.05 4.2 7.49 0 0 0 
4061 1354 2 22.05 4.2 8.49 0 0 0 
4246 1416 1 23.1 3.15 7.49 0 0 0 
4247 1416 2 23.1 3.15 8.49 0 0 0 
4252 1418 1 23.1 4.2 7.49 0 0 0 
4253 1418 2 23.1 4.2 8.49 0 0 0 
4438 1480 1 24.15 3.15 7.49 0 0 0 
4439 1480 2 24.15 3.15 8.49 0 0 0 
4444 1482 1 24.15 4.2 7.49 0 0 0 
4445 1482 2 24.15 4.2 8.49 0 0 0 
4630 1544 1 25.2 3.15 7.49 0 0 0 
4631 1544 2 25.2 3.15 8.49 0 0 0 
4636 1546 1 25.2 4.2 7.49 0 0 0 
4637 1546 2 25.2 4.2 8.49 0 0 0 
4822 1608 1 26.25 3.15 7.49 0 0 0 
4823 1608 2 26.25 3.15 8.49 0 0 0 
4828 1610 1 26.25 4.2 7.49 0 0 0 
4829 1610 2 26.25 4.2 8.49 0 0 0 
5014 1672 1 27.3 3.15 7.49 0 0 0 
5015 1672 2 27.3 3.15 8.49 0 0 0 
5020 1674 1 27.3 4.2 7.49 0 0 0 
5021 1674 2 27.3 4.2 8.49 0 0 0 
5206 1736 1 28.35 3.15 7.49 0 0 0 
5207 1736 2 28.35 3.15 8.49 0 0 0 
5212 1738 1 28.35 4.2 7.49 0 0 0 
5213 1738 2 28.35 4.2 8.49 0 0 0 
5398 1800 1 29.4 3.15 7.49 0 0 0 
5399 1800 2 29.4 3.15 8.49 0 0 0 
5404 1802 1 29.4 4.2 7.49 0 0 0 
5405 1802 2 29.4 4.2 8.49 0 0 0 
5590 1864 1 30.45 3.15 7.49 0 0 0 
5591 1864 2 30.45 3.15 8.49 0 0 0 
5596 1866 1 30.45 4.2 7.49 0 0 0 
5597 1866 2 30.45 4.2 8.49 0 0 0 
5782 1928 1 31.5 3.15 7.49 0 0 0 
5783 1928 2 31.5 3.15 8.49 0 0 0 
5788 1930 1 31.5 4.2 7.49 0 0 0 
5789 1930 2 31.5 4.2 8.49 0 0 0 
5974 1992 1 32.55 3.15 7.49 0 0 0 
5975 1992 2 32.55 3.15 8.49 0 0 0 
5980 1994 1 32.55 4.2 7.49 0 0 0 
5981 1994 2 32.55 4.2 8.49 0 0 0 
34 12 1 0 5.25 7.49 0 0 0 
35 12 2 0 5.25 8.49 0 0 0 
226 76 1 1.05 5.25 7.49 0 0 0 
227 76 2 1.05 5.25 8.49 0 0 0 
418 140 1 2.1 5.25 7.49 0 0 0 
419 140 2 2.1 5.25 8.49 0 0 0 
610 204 1 3.15 5.25 7.49 0 0 0 
611 204 2 3.15 5.25 8.49 0 0 0 
802 268 1 4.2 5.25 7.49 0 0 0 
803 268 2 4.2 5.25 8.49 0 0 0 
994 332 1 5.25 5.25 7.49 0 0 0 
995 332 2 5.25 5.25 8.49 0 0 0 
1186 396 1 6.3 5.25 7.49 0 0 0 
1187 396 2 6.3 5.25 8.49 0 0 0 
1378 460 1 7.35 5.25 7.49 0 0 0 
1379 460 2 7.35 5.25 8.49 0 0 0 
1570 524 1 8.4 5.25 7.49 0 0 0 
1571 524 2 8.4 5.25 8.49 0 0 0 
1762 588 1 9.45 5.25 7.49 0 0 0 
1763 588 2 9.45 5.25 8.49 0 0 0 
1954 652 1 10.5 5.25 7.49 0 0 0 
1955 652 2 10.5 5.25 8.49 0 0 0 
2146 716 1 11.55 5.25 7.49 0 0 0 
2147 716 2 11.55 5.25 8.49 0 0 0 
2338 780 1 12.6 5.25 7.49 0 0 0 
2339 780 2 12.6 5.25 8.49 0 0 0 
2530 844 1 13.65 5.25 7.49 0 0 0 
2531 844 2 13.65 5.25 8.49 0 0 0 
2722 908 1 14.7 5.25 7.49 0 0 0 
2723 908 2 14.7 5.25 8.49 0 0 0 
2914 972 1 15.75 5.25 7.49 0 0 0 
2915 972 2 15.75 5.25 8.49 0 0 0 
3106 1036 1 16.8 5.25 7.49 0 0 0 
3107 1036 2 16.8 5.25 8.49 0 0 0 
3298 1100 1 17.85 5.25 7.49 0 0 0 
3299 1100 2 17.85 5.25 8.49 0 0 0 
3490 1164 1 18.9 5.25 7.49 0 0 0 
3491 1164 2 18.9 5.25 8.49 0 0 0 
3682 1228 1 19.95 5.25 7.49 0 0 0 
3683 1228 2 19.95 5.25 8.49 0 0 0 
3874 1292 1 21 5.25 7.49 0 0 0 
3875 1292 2 21 5.25 8.49 0 0 0 
4066 1356 1 22.05 5.25 7.49 0 0 0 
4067 1356 2 22.05 5.25 8.49 0 0 0 
4258 1420 1 23.1 5.25 7.49 0 0 0 
4259 1420 2 23.1 5.25 8.49 0 0 0 
4450 1484 1 24.15 5.25 7.49 0 0 0 
4451 1484 2 24.15 5.25 8.49 0 0 0 
4642 1548 1 25.2 5.25 7.49 0 0 0 
4643 1548 2 25.2 5.25 8.49 0 0 0 
4834 1612 1 26.25 5.25 7.49 0 0 0 
4835 1612 2 26.25 5.25 8.49 0 0 0 
5026 1676 1 27.3 5.25 7.49 0 0 0 
5027 1676 2 27.3 5.25 8.49 0 0 0 
5218 1740 1 28.35 5.25 7.49 0 0 0 
5219 1740 2 28.35 5.25 8.49 0 0 0 
5410 1804 1 29.4 5.25 7.49 0 0 0 
5411 1804 2 29.4 5.25 8.49 0 0 0 
5602 1868 1 30.45 5.25 7.49 0 0 0 
5603 1868 2 30.45 5.25 8.49 0 0 0 
5794 1932 1 31.5 5.25 7.49 0 0 0 
5795 1932 2 31.5 5.25 8.49 0 0 0 
5986 1996 1 32.55 5.25 7.49 0 0 0 
5987 1996 2 32.55 5.25 8.49 0 0 0 
40 14 1 0 6.3 7.49 0 0 0 
41 14 2 0 6.3 8.49 0 0 0 
232 78 1 1.05 6.3 7.49 0 0 0 
233 78 2 1.05 6.3 8.49 0 0 0 
424 142 1 2.1 6.3 7.49 0 0 0 
425 142 2 2.1 6.3 8.49 0 0 0 
616 206 1 3.15 6.3 7.49 0 0 0 
617 206 2 3.15 6.3 8.49 0 0 0 
808 270 1 4.2 6.3 7.49 0 0 0 
809 270 2 4.2 6.3 8.49 0 0 0 
1000 334 1 5.25 6.3 7.49 0 0 0 
1001 334 2 5.25 6.3 8.49 0 0 0 
1192 398 1 6.3 6.3 7.49 0 0 0 
1193 398 2 6.3 6.3 8.49 0 0 0 
1384 462 1 7.35 6.3 7.49 0 0 0 
1385 462 2 7.35 6.3 8.49 0 0 0 
1576 526 1 8.4 6.3 7.49 0 0 0 
1577 526 2 8.4 6.3 8.49 0 0 0 
1768 590 1 9.45 6.3 7.49 0 0 0 
1769 590 2 9.45 6.3 8.49 0 0 0 
1960 654 1 10.5 6.3 7.49 0 0 0 
1961 654 2 10.5 6.3 8.49 0 0 0 
2152 718 1 11.55 6.3 7.49 0 0 0 
2153 718 2 11.55 6.3 8.49 0 0 0 
2344 782 1 12.6 6.3 7.49 0 0 0 
2345 782 2 12.6 6.3 8.49 0 0 0 
2536 846 1 13.65 6.3 7.49 0 0 0 
2537 846 2 13.65 6.3 8.49 0 0 0 
2728 910 1 14.7 6.3 7.49 0 0 0 
2729 910 2 14.7 6.3 8.49 0 0 0 
2920 974 1 15.75 6.3 7.49 0 0 0 
2921 974 2 15.75 6.3 8.49 0 0 0 
3112 1038 1 16.8 6.3 7.49 0 0 0 
3113 1038 2 16.8 6.3 8.49 0 0 0 
3304 1102 1 17.85 6.3 7.49 0 0 0 
3305 1102 2 17.85 6.3 8.49 0 0 0 
3496 1166 1 18.9 6.3 7.49 0 0 0 
3497 1166 2 18.9 6.3 8.49 0 0 0 
3688 1230 1 19.95 6.3 7.49 0 0 0 
3689 1230 2 19.95 6.3 8.49 0 0 0 
3880 1294 1 21 6.3 7.49 0 0 0 
3881 1294 2 21 6.3 8.49 0 0 0 
4072 1358 1 22.05 6.3 7.49 0 0 0 
4073 1358 2 22.05 6.3 8.49 0 0 0 
4264 1422 1 23.1 6.3 7.49 0 0 0 
4265 1422 2 23.1 6.3 8.49 0 0 0 
4456 1486 1 24.15 6.3 7.49 0 0 0 
4457 1486 2 24.15 6.3 8.49 0 0 0 
4648 1550 1 25.2 6.3 7.49 0 0 0 
4649 1550 2 25.2 6.3 8.49 0 0 0 
4840 1614 1 26.25 6.3 7.49 0 0 0 
4841 1614 2 26.25 6.3 8.49 0 0 0 
5032 1678 1 27.3 6.3 7.49 0 0 0 
5033 1678 2 27.3 6.3 8.49 0 0 0 
5224 1742 1 28.35 6.3 7.49 0 0 0 
5225 1742 2 28.35 6.3 8.49 0 0 0 
5416 1806 1 29.4 6.3 7.49 0 0 0 
5417 1806 2 29.4 6.3 8.49 0 0 0 
5608 1870 1 30.45 6.3 7.49 0 0 0 
5609 1870 2 30.45 6.3 8.49 0 0 0 
5800 1934 1 31.5 6.3 7.49 0 0 0 
5801 1934 2 31.5 6.3 8.49 0 0 0 
5992 1998 1 32.55 6.3 7.49 0 0 0 
5993 1998 2 32.55 6.3 8.49 0 0 0 
46 16 1 0 7.35 7.49 0 0 0 
47 16 2 0 7.35 8.49 0 0 0 
52 18 1 0 8.4 7.49 0 0 0 
53 18 2 0 8.4 8.49 0 0 0 
238 80 1 1.05 7.35 7.49 0 0 0 
239 80 2 1.05 7.35 8.49 0 0 0 
244 82 1 1.05 8.4 7.49 0 0 0 
245 82 2 1.05 8.4 8.49 0 0 0 
430 144 1 2.1 7.35 7.49 0 0 0 
431 144 2 2.1 7.35 8.49 0 0 0 
436 146 1 2.1 8.4 7.49 0 0 0 
437 146 2 2.1 8.4 8.49 0 0 0 
622 208 1 3.15 7.35 7.49 0 0 0 
623 208 2 3.15 7.35 8.49 0 0 0 
628 210 1 3.15 8.4 7.49 0 0 0 
629 210 2 3.15 8.4 8.49 0 0 0 
814 272 1 4.2 7.35 7.49 0 0 0 
815 272 2 4.2 7.35 8.49 0 0 0 
820 274 1 4.2 8.4 7.49 0 0 0 
821 274 2 4.2 8.4 8.49 0 0 0 
1006 336 1 5.25 7.35 7.49 0 0 0 
1007 336 2 5.25 7.35 8.49 0 0 0 
1012 338 1 5.25 8.4 7.49 0 0 0 
1013 338 2 5.25 8.4 8.49 0 0 0 
1198 400 1 6.3 7.35 7.49 0 0 0 
1199 400 2 6.3 7.35 8.49 0 0 0 
1204 402 1 6.3 8.4 7.49 0 0 0 
1205 402 2 6.3 8.4 8.49 0 0 0 
1390 464 1 7.35 7.35 7.49 0 0 0 
1391 464 2 7.35 7.35 8.49 0 0 0 
1396 466 1 7.35 8.4 7.49 0 0 0 
1397 466 2 7.35 8.4 8.49 0 0 0 
1582 528 1 8.4 7.35 7.49 0 0 0 
1583 528 2 8.4 7.35 8.49 0 0 0 
1588 530 1 8.4 8.4 7.49 0 0 0 
1589 530 2 8.4 8.4 8.49 0 0 0 
1774 592 1 9.45 7.35 7.49 0 0 0 
1775 592 2 9.45 7.35 8.49 0 0 0 
1780 594 1 9.45 8.4 7.49 0 0 0 
1781 594 2 9.45 8.4 8.49 0 0 0 
1966 656 1 10.5 7.35 7.49 0 0 0 
1967 656 2 10.5 7.35 8.49 0 0 0 
1972 658 1 10.5 8.4 7.49 0 0 0 
1973 658 2 10.5 8.4 8.49 0 0 0 
2158 720 1 11.55 7.35 7.49 0 0 0 
2159 720 2 11.55 7.35 8.49 0 0 0 
2164 722 1 11.55 8.4 7.49 0 0 0 
2165 722 2 11.55 8.4 8.49 0 0 0 
2350 784 1 12.6 7.35 7.49 0 0 0 
2351 784 2 12.6 7.35 8.49 0 0 0 
2356 786 1 12.6 8.4 7.49 0 0 0 
2357 786 2 12.6 8.4 8.49 0 0 0 
2542 848 1 13.65 7.35 7.49 0 0 0 
2543 848 2 13.65 7.35 8.49 0 0 0 
2548 850 1 13.65 8.4 7.49 0 0 0 
2549 850 2 13.65 8.4 8.49 0 0 0 
2734 912 1 14.7 7.35 7.49 0 0 0 
2735 912 2 14.7 7.35 8.49 0 0 0 
2740 914 1 14.7 8.4 7.49 0 0 0 
2741 914 2 14.7 8.4 8.49 0 0 0 
2926 976 1 15.75 7.35 7.49 0 0 0 
2927 976 2 15.75 7.35 8.49 0 0 0 
2932 978 1 15.75 8.4 7.49 0 0 0 
2933 978 2 15.75 8.4 8.49 0 0 0 
3118 1040 1 16.8 7.35 7.49 0 0 0 
3119 1040 2 16.8 7.35 8.49 0 0 0 
3124 1042 1 16.8 8.4 7.49 0 0 0 
3125 1042 2 16.8 8.4 8.49 0 0 0 
3310 1104 1 17.85 7.35 7.49 0 0 0 
3311 1104 2 17.85 7.35 8.49 0 0 0 
3316 1106 1 17.85 8.4 7.49 0 0 0 
3317 1106 2 17.85 8.4 8.49 0 0 0 
3502 1168 1 18.9 7.35 7.49 0 0 0 
3503 1168 2 18.9 7.35 8.49 0 0 0 
3508 1170 1 18.9 8.4 7.49 0 0 0 
3509 1170 2 18.9 8.4 8.49 0 0 0 
3694 1232 1 19.95 7.35 7.49 0 0 0 
3695 1232 2 19.95 7.35 8.49 0 0 0 
3700 1234 1 19.95 8.4 7.49 0 0 0 
3701 1234 2 19.95 8.4 8.49 0 0 0 
3886 1296 1 21 7.35 7.49 0 0 0 
3887 1296 2 21 7.35 8.49 0 0 0 
3892 1298 1 21 8.4 7.49 0 0 0 
3893 1298 2 21 8.4 8.49 0 0 0 
4078 1360 1 22.05 7.35 7.49 0 0 0 
4079 1360 2 22.05 7.35 8.49 0 0 0 
4084 1362 1 22.05 8.4 7.49 0 0 0 
4085 1362 2 22.05 8.4 8.49 0 0 0 
4270 1424 1 23.1 7.35 7.49 0 0 0 
4271 1424 2 23.1 7.35 8.49 0 0 0 
4276 1426 1 23.1 8.4 7.49 0 0 0 
4277 1426 2 23.1 8.4 8.49 0 0 0 
4462 1488 1 24.15 7.35 7.49 0 0 0 
4463 1488 2 24.15 7.35 8.49 0 0 0 
4468 1490 1 24.15 8.4 7.49 0 0 0 
4469 1490 2 24.15 8.4 8.49 0 0 0 
4654 1552 1 25.2 7.35 7.49 0 0 0 
4655 1552 2 25.2 7.35 8.49 0 0 0 
4660 1554 1 25.2 8.4 7.49 0 0 0 
4661 1554 2 25.2 8.4 8.49 0 0 0 
4846 1616 1 26.25 7.35 7.49 0 0 0 
4847 1616 2 26.25 7.35 8.49 0 0 0 
4852 1618 1 26.25 8.4 7.49 0 0 0 
4853 1618 2 26.25 8.4 8.49 0 0 0 
5038 1680 1 27.3 7.35 7.49 0 0 0 
5039 1680 2 27.3 7.35 8.49 0 0 0 
5044 1682 1 27.3 8.4 7.49 0 0 0 
5045 1682 2 27.3 8.4 8.49 0 0 0 
5230 1744 1 28.35 7.35 7.49 0 0 0 
5231 1744 2 28.35 7.35 8.49 0 0 0 
5236 1746 1 28.35 8.4 7.49 0 0 0 
5237 1746 2 28.35 8.4 8.49 0 0 0 
5422 1808 1 29.4 7.35 7.49 0 0 0 
5423 1808 2 29.4 7.35 8.49 0 0 0 
5428 1810 1 29.4 8.4 7.49 0 0 0 
5429 1810 2 29.4 8.4 8.49 0 0 0 
5614 1872 1 30.45 7.35 7.49 0 0 0 
5615 1872 2 30.45 7.35 8.49 0 0 0 
5620 1874 1 30.45 8.4 7.49 0 0 0 
5621 1874 2 30.45 8.4 8.49 0 0 0 
5806 1936 1 31.5 7.35 7.49 0 0 0 
5807 1936 2 31.5 7.35 8.49 0 0 0 
5812 1938 1 31.5 8.4 7.49 0 0 0 
5813 1938 2 31.5 8.4 8.49 0 0 0 
5998 2000 1 32.55 7.35 7.49 0 0 0 
5999 2000 2 32.55 7.35 8.49 0 0 0 
6004 2002 1 32.55 8.4 7.49 0 0 0 
6005 2002 2 32.55 8.4 8.49 0 0 0 
58 20 1 0 9.45 7.49 0 0 0 
59 20 2 0 9.45 8.49 0 0 0 
250 84 1 1.05 9.45 7.49 0 0 0 
251 84 2 1.05 9.45 8.49 0 0 0 
442 148 1 2.1 9.45 7.49 0 0 0 
443 148 2 2.1 9.45 8.49 0 0 0 
634 212 1 3.15 9.45 7.49 0 0 0 
635 212 2 3.15 9.45 8.49 0 0 0 
826 276 1 4.2 9.45 7.49 0 0 0 
827 276 2 4.2 9.45 8.49 0 0 0 
1018 340 1 5.25 9.45 7.49 0 0 0 
1019 340 2 5.25 9.45 8.49 0 0 0 
1210 404 1 6.3 9.45 7.49 0 0 0 
1211 404 2 6.3 9.45 8.49 0 0 0 
1402 468 1 7.35 9.45 7.49 0 0 0 
1403 468 2 7.35 9.45 8.49 0 0 0 
1594 532 1 8.4 9.45 7.49 0 0 0 
1595 532 2 8.4 9.45 8.49 0 0 0 
1786 596 1 9.45 9.45 7.49 0 0 0 
1787 596 2 9.45 9.45 8.49 0 0 0 
1978 660 1 10.5 9.45 7.49 0 0 0 
1979 660 2 10.5 9.45 8.49 0 0 0 
2170 724 1 11.55 9.45 7.49 0 0 0 
2171 724 2 11.55 9.45 8.49 0 0 0 
2362 788 1 12.6 9.45 7.49 0 0 0 
2363 788 2 12.6 9.45 8.49 0 0 0 
2554 852 1 13.65 9.45 7.49 0 0 0 
2555 852 2 13.65 9.45 8.49 0 0 0 
2746 916 1 14.7 9.45 7.49 0 0 0 
2747 916 2 14.7 9.45 8.49 0 0 0 
2938 980 1 15.75 9.45 7.49 0 0 0 
2939 980 2 15.75 9.45 8.49 0 0 0 
3130 1044 1 16.8 9.45 7.49 0 0 0 
3131 1044 2 16.8 9.45 8.49 0 0 0 
3322 1108 1 17.85 9.45 7.49 0 0 0 
3323 1108 2 17.85 9.45 8.49 0 0 0 
3514 1172 1 18.9 9.45 7.49 0 0 0 
3515 1172 2 18.9 9.45 8.49 0 0 0 
3706 1236 1 19.95 9.45 7.49 0 0 0 
3707 1236 2 19.95 9.45 8.49 0 0 0 
3898 1300 1 21 9.45 7.49 0 0 0 
3899 1300 2 21 9.45 8.49 0 0 0 
4090 1364 1 22.05 9.45 7.49 0 0 0 
4091 1364 2 22.05 9.45 8.49 0 0 0 
4282 1428 1 23.1 9.45 7.49 0 0 0 
4283 1428 2 23.1 9.45 8.49 0 0 0 
4474 1492 1 24.15 9.45 7.49 0 0 0 
4475 1492 2 24.15 9.45 8.49 0 0 0 
4666 1556 1 25.2 9.45 7.49 0 0 0 
4667 1556 2 25.2 9.45 8.49 0 0 0 
4858 1620 1 26.25 9.45 7.49 0 0 0 
4859 1620 2 26.25 9.45 8.49 0 0 0 
5050 1684 1 27.3 9.45 7.49 0 0 0 
5051 1684 2 27.3 9.45 8.49 0 0 0 
5242 1748 1 28.35 9.45 7.49 0 0 0 
5243 1748 2 28.35 9.45 8.49 0 0 0 
5434 1812 1 29.4 9.45 7.49 0 0 0 
5435 1812 2 29.4 9.45 8.49 0 0 0 
5626 1876 1 30.45 9.45 7.49 0 0 0 
5627 1876 2 30.45 9.45 8.49 0 0 0 
5818 1940 1 31.5 9.45 7.49 0 0 0 
5819 1940 2 31.5 9.45 8.49 0 0 0 
6010 2004 1 32.55 9.45 7.49 0 0 0 
6011 2004 2 32.55 9.45 8.49 0 0 0 
64 22 1 0 10.5 7.49 0 0 0 
65 22 2 0 10.5 8.49 0 0 0 
256 86 1 1.05 10.5 7.49 0 0 0 
257 86 2 1.05 10.5 8.49 0 0 0 
448 150 1 2.1 10.5 7.49 0 0 0 
449 150 2 2.1 10.5 8.49 0 0 0 
640 214 1 3.15 10.5 7.49 0 0 0 
641 214 2 3.15 10.5 8.49 0 0 0 
832 278 1 4.2 10.5 7.49 0 0 0 
833 278 2 4.2 10.5 8.49 0 0 0 
1024 342 1 5.25 10.5 7.49 0 0 0 
1025 342 2 5.25 10.5 8.49 0 0 0 
1216 406 1 6.3 10.5 7.49 0 0 0 
1217 406 2 6.3 10.5 8.49 0 0 0 
1408 470 1 7.35 10.5 7.49 0 0 0 
1409 470 2 7.35 10.5 8.49 0 0 0 
1600 534 1 8.4 10.5 7.49 0 0 0 
1601 534 2 8.4 10.5 8.49 0 0 0 
1792 598 1 9.45 10.5 7.49 0 0 0 
1793 598 2 9.45 10.5 8.49 0 0 0 
1984 662 1 10.5 10.5 7.49 0 0 0 
1985 662 2 10.5 10.5 8.49 0 0 0 
2176 726 1 11.55 10.5 7.49 0 0 0 
2177 726 2 11.55 10.5 8.49 0 0 0 
2368 790 1 12.6 10.5 7.49 0 0 0 
2369 790 2 12.6 10.5 8.49 0 0 0 
2560 854 1 13.65 10.5 7.49 0 0 0 
2561 854 2 13.65 10.5 8.49 0 0 0 
2752 918 1 14.7 10.5 7.49 0 0 0 
2753 918 2 14.7 10.5 8.49 0 0 0 
2944 982 1 15.75 10.5 7.49 0 0 0 
2945 982 2 15.75 10.5 8.49 0 0 0 
3136 1046 1 16.8 10.5 7.49 0 0 0 
3137 1046 2 16.8 10.5 8.49 0 0 0 
3328 1110 1 17.85 10.5 7.49 0 0 0 
3329 1110 2 17.85 10.5 8.49 0 0 0 
3520 1174 1 18.9 10.5 7.49 0 0 0 
3521 1174 2 18.9 10.5 8.49 0 0 0 
3712 1238 1 19.95 10.5 7.49 0 0 0 
3713 1238 2 19.95 10.5 8.49 0 0 0 
3904 1302 1 21 10.5 7.49 0 0 0 
3905 1302 2 21 10.5 8.49 0 0 0 
4096 1366 1 22.05 10.5 7.49 0 0 0 
4097 1366 2 22.05 10.5 8.49 0 0 0 
4288 1430 1 23.1 10.5 7.49 0 0 0 
4289 1430 2 23.1 10.5 8.49 0 0 0 
4480 1494 1 24.15 10.5 7.49 0 0 0 
4481 1494 2 24.15 10.5 8.49 0 0 0 
4672 1558 1 25.2 10.5 7.49 0 0 0 
4673 1558 2 25.2 10.5 8.49 0 0 0 
4864 1622 1 26.25 10.5 7.49 0 0 0 
4865 1622 2 26.25 10.5 8.49 0 0 0 
5056 1686 1 27.3 10.5 7.49 0 0 0 
5057 1686 2 27.3 10.5 8.49 0 0 0 
5248 1750 1 28.35 10.5 7.49 0 0 0 
5249 1750 2 28.35 10.5 8.49 0 0 0 
5440 1814 1 29.4 10.5 7.49 0 0 0 
5441 1814 2 29.4 10.5 8.49 0 0 0 
5632 1878 1 30.45 10.5 7.49 0 0 0 
5633 1878 2 30.45 10.5 8.49 0 0 0 
5824 1942 1 31.5 10.5 7.49 0 0 0 
5825 1942 2 31.5 10.5 8.49 0 0 0 
6016 2006 1 32.55 10.5 7.49 0 0 0 
6017 2006 2 32.55 10.5 8.49 0 0 0 
70 24 1 0 11.55 7.49 0 0 0 
71 24 2 0 11.55 8.49 0 0 0 
76 26 1 0 12.6 7.49 0 0 0 
77 26 2 0 12.6 8.49 0 0 0 
262 88 1 1.05 11.55 7.49 0 0 0 
263 88 2 1.05 11.55 8.49 0 0 0 
268 90 1 1.05 12.6 7.49 0 0 0 
269 90 2 1.05 12.6 8.49 0 0 0 
454 152 1 2.1 11.55 7.49 0 0 0 
455 152 2 2.1 11.55 8.49 0 0 0 
460 154 1 2.1 12.6 7.49 0 0 0 
461 154 2 2.1 12.6 8.49 0 0 0 
646 216 1 3.15 11.55 7.49 0 0 0 
647 216 2 3.15 11.55 8.49 0 0 0 
652 218 1 3.15 12.6 7.49 0 0 0 
653 218 2 3.15 12.6 8.49 0 0 0 
838 280 1 4.2 11.55 7.49 0 0 0 
839 280 2 4.2 11.55 8.49 0 0 0 
844 282 1 4.2 12.6 7.49 0 0 0 
845 282 2 4.2 12.6 8.49 0 0 0 
1030 344 1 5.25 11.55 7.49 0 0 0 
1031 344 2 5.25 11.55 8.49 0 0 0 
1036 346 1 5.25 12.6 7.49 0 0 0 
1037 346 2 5.25 12.6 8.49 0 0 0 
1222 408 1 6.3 11.55 7.49 0 0 0 
1223 408 2 6.3 11.55 8.49 0 0 0 
1228 410 1 6.3 12.6 7.49 0 0 0 
1229 410 2 6.3 12.6 8.49 0 0 0 
1414 472 1 7.35 11.55 7.49 0 0 0 
1415 472 2 7.35 11.55 8.49 0 0 0 
1420 474 1 7.35 12.6 7.49 0 0 0 
1421 474 2 7.35 12.6 8.49 0 0 0 
1606 536 1 8.4 11.55 7.49 0 0 0 
1607 536 2 8.4 11.55 8.49 0 0 0 
1612 538 1 8.4 12.6 7.49 0 0 0 
1613 538 2 8.4 12.6 8.49 0 0 0 
1798 600 1 9.45 11.55 7.49 0 0 0 
1799 600 2 9.45 11.55 8.49 0 0 0 
1804 602 1 9.45 12.6 7.49 0 0 0 
1805 602 2 9.45 12.6 8.49 0 0 0 
1990 664 1 10.5 11.55 7.49 0 0 0 
1991 664 2 10.5 11.55 8.49 0 0 0 
1996 666 1 10.5 12.6 7.49 0 0 0 
1997 666 2 10.5 12.6 8.49 0 0 0 
2182 728 1 11.55 11.55 7.49 0 0 0 
2183 728 2 11.55 11.55 8.49 0 0 0 
2188 730 1 11.55 12.6 7.49 0 0 0 
2189 730 2 11.55 12.6 8.49 0 0 0 
2374 792 1 12.6 11.55 7.49 0 0 0 
2375 792 2 12.6 11.55 8.49 0 0 0 
2380 794 1 12.6 12.6 7.49 0 0 0 
2381 794 2 12.6 12.6 8.49 0 0 0 
2566 856 1 13.65 11.55 7.49 0 0 0 
2567 856 2 13.65 11.55 8.49 0 0 0 
2572 858 1 13.65 12.6 7.49 0 0 0 
2573 858 2 13.65 12.6 8.49 0 0 0 
2758 920 1 14.7 11.55 7.49 0 0 0 
2759 920 2 14.7 11.55 8.49 0 0 0 
2764 922 1 14.7 12.6 7.49 0 0 0 
2765 922 2 14.7 12.6 8.49 0 0 0 
2950 984 1 15.75 11.55 7.49 0 0 0 
2951 984 2 15.75 11.55 8.49 0 0 0 
2956 986 1 15.75 12.6 7.49 0 0 0 
2957 986 2 15.75 12.6 8.49 0 0 0 
3142 1048 1 16.8 11.55 7.49 0 0 0 
3143 1048 2 16.8 11.55 8.49 0 0 0 
3148 1050 1 16.8 12.6 7.49 0 0 0 
3149 1050 2 16.8 12.6 8.49 0 0 0 
3334 1112 1 17.85 11.55 7.49 0 0 0 
3335 1112 2 17.85 11.55 8.49 0 0 0 
3340 1114 1 17.85 12.6 7.49 0 0 0 
3341 1114 2 17.85 12.6 8.49 0 0 0 
3526 1176 1 18.9 11.55 7.49 0 0 0 
3527 1176 2 18.9 11.55 8.49 0 0 0 
3532 1178 1 18.9 12.6 7.49 0 0 0 
3533 1178 2 18.9 12.6 8.49 0 0 0 
3718 1240 1 19.95 11.55 7.49 0 0 0 
3719 1240 2 19.95 11.55 8.49 0 0 0 
3724 1242 1 19.95 12.6 7.49 0 0 0 
3725 1242 2 19.95 12.6 8.49 0 0 0 
3910 1304 1 21 11.55 7.49 0 0 0 
3911 1304 2 21 11.55 8.49 0 0 0 
3916 1306 1 21 12.6 7.49 0 0 0 
3917 1306 2 21 12.6 8.49 0 0 0 
4102 1368 1 22.05 11.55 7.49 0 0 0 
4103 1368 2 22.05 11.55 8.49 0 0 0 
4108 1370 1 22.05 12.6 7.49 0 0 0 
4109 1370 2 22.05 12.6 8.49 0 0 0 
4294 1432 1 23.1 11.55 7.49 0 0 0 
4295 1432 2 23.1 11.55 8.49 0 0 0 
4300 1434 1 23.1 12.6 7.49 0 0 0 
4301 1434 2 23.1 12.6 8.49 0 0 0 
4486 1496 1 24.15 11.55 7.49 0 0 0 
4487 1496 2 24.15 11.55 8.49 0 0 0 
4492 1498 1 24.15 12.6 7.49 0 0 0 
4493 1498 2 24.15 12.6 8.49 0 0 0 
4678 1560 1 25.2 11.55 7.49 0 0 0 
4679 1560 2 25.2 11.55 8.49 0 0 0 
4684 1562 1 25.2 12.6 7.49 0 0 0 
4685 1562 2 25.2 12.6 8.49 0 0 0 
4870 1624 1 26.25 11.55 7.49 0 0 0 
4871 1624 2 26.25 11.55 8.49 0 0 0 
4876 1626 1 26.25 12.6 7.49 0 0 0 
4877 1626 2 26.25 12.6 8.49 0 0 0 
5062 1688 1 27.3 11.55 7.49 0 0 0 
5063 1688 2 27.3 11.55 8.49 0 0 0 
5068 1690 1 27.3 12.6 7.49 0 0 0 
5069 1690 2 27.3 12.6 8.49 0 0 0 
5254 1752 1 28.35 11.55 7.49 0 0 0 
5255 1752 2 28.35 11.55 8.49 0 0 0 
5260 1754 1 28.35 12.6 7.49 0 0 0 
5261 1754 2 28.35 12.6 8.49 0 0 0 
5446 1816 1 29.4 11.55 7.49 0 0 0 
5447 1816 2 29.4 11.55 8.49 0 0 0 
5452 1818 1 29.4 12.6 7.49 0 0 0 
5453 1818 2 29.4 12.6 8.49 0 0 0 
5638 1880 1 30.45 11.55 7.49 0 0 0 
5639 1880 2 30.45 11.55 8.49 0 0 0 
5644 1882 1 30.45 12.6 7.49 0 0 0 
5645 1882 2 30.45 12.6 8.49 0 0 0 
5830 1944 1 31.5 11.55 7.49 0 0 0 
5831 1944 2 31.5 11.55 8.49 0 0 0 
5836 1946 1 31.5 12.6 7.49 0 0 0 
5837 1946 2 31.5 12.6 8.49 0 0 0 
6022 2008 1 32.55 11.55 7.49 0 0 0 
6023 2008 2 32.55 11.55 8.49 0 0 0 
6028 2010 1 32.55 12.6 7.49 0 0 0 
6029 2010 2 32.55 12.6 8.49 0 0 0 
82 28 1 0 13.65 7.49 0 0 0 
83 28 2 0 13.65 8.49 0 0 0 
274 92 1 1.05 13.65 7.49 0 0 0 
275 92 2 1.05 13.65 8.49 0 0 0 
466 156 1 2.1 13.65 7.49 0 0 0 
467 156 2 2.1 13.65 8.49 0 0 0 
658 220 1 3.15 13.65 7.49 0 0 0 
659 220 2 3.15 13.65 8.49 0 0 0 
850 284 1 4.2 13.65 7.49 0 0 0 
851 284 2 4.2 13.65 8.49 0 0 0 
1042 348 1 5.25 13.65 7.49 0 0 0 
1043 348 2 5.25 13.65 8.49 0 0 0 
1234 412 1 6.3 13.65 7.49 0 0 0 
1235 412 2 6.3 13.65 8.49 0 0 0 
1426 476 1 7.35 13.65 7.49 0 0 0 
1427 476 2 7.35 13.65 8.49 0 0 0 
1618 540 1 8.4 13.65 7.49 0 0 0 
1619 540 2 8.4 13.65 8.49 0 0 0 
1810 604 1 9.45 13.65 7.49 0 0 0 
1811 604 2 9.45 13.65 8.49 0 0 0 
2002 668 1 10.5 13.65 7.49 0 0 0 
2003 668 2 10.5 13.65 8.49 0 0 0 
2194 732 1 11.55 13.65 7.49 0 0 0 
2195 732 2 11.55 13.65 8.49 0 0 0 
2386 796 1 12.6 13.65 7.49 0 0 0 
2387 796 2 12.6 13.65 8.49 0 0 0 
2578 860 1 13.65 13.65 7.49 0 0 0 
2579 860 2 13.65 13.65 8.49 0 0 0 
2770 924 1 14.7 13.65 7.49 0 0 0 
2771 924 2 14.7 13.65 8.49 0 0 0 
2962 988 1 15.75 13.65 7.49 0 0 0 
2963 988 2 15.75 13.65 8.49 0 0 0 
3154 1052 1 16.8 13.65 7.49 0 0 0 
3155 1052 2 16.8 13.65 8.49 0 0 0 
3346 1116 1 17.85 13.65 7.49 0 0 0 
3347 1116 2 17.85 13.65 8.49 0 0 0 
3538 1180 1 18.9 13.65 7.49 0 0 0 
3539 1180 2 18.9 13.65 8.49 0 0 0 
3730 1244 1 19.95 13.65 7.49 0 0 0 
3731 1244 2 19.95 13.65 8.49 0 0 0 
3922 1308 1 21 13.65 7.49 0 0 0 
3923 1308 2 21 13.65 8.49 0 0 0 
4114 1372 1 22.05 13.65 7.49 0 0 0 
4115 1372 2 22.05 13.65 8.49 0 0 0 
4306 1436 1 23.1 13.65 7.49 0 0 0 
4307 1436 2 23.1 13.65 8.49 0 0 0 
4498 1500 1 24.15 13.65 7.49 0 0 0 
4499 1500 2 24.15 13.65 8.49 0 0 0 
4690 1564 1 25.2 13.65 7.49 0 0 0 
4691 1564 2 25.2 13.65 8.49 0 0 0 
4882 1628 1 26.25 13.65 7.49 0 0 0 
4883 1628 2 26.25 13.65 8.49 0 0 0 
5074 1692 1 27.3 13.65 7.49 0 0 0 
5075 1692 2 27.3 13.65 8.49 0 0 0 
5266 1756 1 28.35 13.65 7.49 0 0 0 
5267 1756 2 28.35 13.65 8.49 0 0 0 
5458 1820 1 29.4 13.65 7.49 0 0 0 
5459 1820 2 29.4 13.65 8.49 0 0 0 
5650 1884 1 30.45 13.65 7.49 0 0 0 
5651 1884 2 30.45 13.65 8.49 0 0 0 
5842 1948 1 31.5 13.65 7.49 0 0 0 
5843 1948 2 31.5 13.65 8.49 0 0 0 
6034 2012 1 32.55 13.65 7.49 0 0 0 
6035 2012 2 32.55 13.65 8.49 0 0 0 
88 30 1 0 14.7 7.49 0 0 0 
89 30 2 0 14.7 8.49 0 0 0 
280 94 1 1.05 14.7 7.49 0 0 0 
281 94 2 1.05 14.7 8.49 0 0 0 
472 158 1 2.1 14.7 7.49 0 0 0 
473 158 2 2.1 14.7 8.49 0 0 0 
664 222 1 3.15 14.7 7.49 0 0 0 
665 222 2 3.15 14.7 8.49 0 0 0 